unknown system                          
           1
    18.162100    0.000000    0.000000
     0.000000    9.966200    0.000000
     0.000000    0.000000   25.463100
   Mn   H    O    Zn   S 
  16  28  42   1   1
Direct configuration=     1
   0.11047098  0.35985411  0.09128731
   0.36047087  0.35985411  0.09128731
   0.01452899  0.85985431  0.09128731
   0.26452894  0.85985431  0.09128731
   0.23547090  0.14014599  0.03326794
   0.48547084  0.14014599  0.03326794
   0.13952896  0.64014619  0.03326794
   0.38952885  0.64014619  0.03326794
   0.61047082  0.35985411  0.09128731
   0.86047071  0.35985411  0.09128731
   0.51452883  0.85985431  0.09128731
   0.76452877  0.85985431  0.09128731
   0.73547073  0.14014599  0.03326794
   0.98547068  0.14014599  0.03326794
   0.63952880  0.64014619  0.03326794
   0.88952869  0.64014619  0.03326794
   0.10001145  0.10069304  0.09128731
   0.35001140  0.10069304  0.09128731
   0.02498846  0.60069314  0.09128731
   0.27498841  0.60069314  0.09128731
   0.22501142  0.39930716  0.03326794
   0.47501137  0.39930716  0.03326794
   0.14998844  0.89930726  0.03326794
   0.39998838  0.89930726  0.03326794
   0.60001129  0.10069304  0.09128731
   0.85001123  0.10069304  0.09128731
   0.52498830  0.60069314  0.09128731
   0.77498824  0.60069314  0.09128731
   0.72501126  0.39930716  0.03326794
   0.97501120  0.39930716  0.03326794
   0.64998827  0.89930726  0.03326794
   0.89998822  0.89930726  0.03326794
   0.33039571  0.32247286  0.19636258
   0.26007406  0.33920210  0.23578845
   0.17754885  0.51883005  0.15622803
   0.14008887  0.37059812  0.16198860
   0.32670099  0.57404256  0.24033880
   0.39727735  0.47265879  0.23823988
   0.40317915  0.55304118  0.15570280
   0.35663392  0.69311603  0.15797487
   0.10497734  0.69682537  0.12557513
   0.19462265  0.69884078  0.12067454
   0.71980938  0.83512773  0.15732644
   0.80536111  0.81500582  0.15513496
   0.04773699  0.06213702  0.09128731
   0.29773688  0.06213702  0.09128731
   0.17113946  0.19136010  0.09128731
   0.42113935  0.19136010  0.09128731
   0.07726298  0.56213712  0.09128731
   0.32726287  0.56213712  0.09128731
   0.20386046  0.69136020  0.09128731
   0.45386035  0.69136020  0.09128731
   0.04613949  0.30864010  0.03326794
   0.29613938  0.30864010  0.03326794
   0.17273696  0.43786318  0.03326794
   0.42273685  0.43786318  0.03326794
   0.07886048  0.80864020  0.03326794
   0.32886037  0.80864020  0.03326794
   0.20226295  0.93786328  0.03326794
   0.45226284  0.93786328  0.03326794
   0.54773683  0.06213702  0.09128731
   0.79773672  0.06213702  0.09128731
   0.67113930  0.19136010  0.09128731
   0.92113919  0.19136010  0.09128731
   0.57726282  0.56213712  0.09128731
   0.82726271  0.56213712  0.09128731
   0.70386029  0.69136020  0.09128731
   0.95386018  0.69136020  0.09128731
   0.54613932  0.30864010  0.03326794
   0.79613921  0.30864010  0.03326794
   0.67273680  0.43786318  0.03326794
   0.92273669  0.43786318  0.03326794
   0.57886032  0.80864020  0.03326794
   0.82886021  0.80864020  0.03326794
   0.70226279  0.93786328  0.03326794
   0.95226268  0.93786328  0.03326794
   0.55059712  0.35985411  0.20910486
   0.66071655  0.34115310  0.13745381
   0.61047082  0.25951496  0.20910486
   0.61047082  0.46019325  0.13745381
   0.28921457  0.38303335  0.20721958
   0.15628661  0.44111627  0.13654771
   0.38168037  0.56882914  0.23962381
   0.35271984  0.59305051  0.15709006
   0.15209018  0.71020309  0.14521818
   0.75860104  0.80855040  0.13455027
   0.49553741  0.35985411  0.13352655
   0.60565683  0.35985411  0.16983235
Direct configuration=     2
   0.11054688  0.35929148  0.09106085
   0.36021993  0.36025433  0.09122178
   0.01453454  0.86002599  0.09122333
   0.26429399  0.85966797  0.09137385
   0.23543049  0.13968168  0.03322252
   0.48546874  0.14054040  0.03362207
   0.13963157  0.64044609  0.03330349
   0.38959841  0.63981149  0.03333549
   0.61063316  0.35982343  0.09117905
   0.86047274  0.35992584  0.09142073
   0.51467503  0.86024420  0.09125634
   0.76448600  0.86031289  0.09114234
   0.73561441  0.14065018  0.03360240
   0.98555549  0.14008413  0.03321571
   0.63942420  0.63939636  0.03313330
   0.88951594  0.63960860  0.03338897
   0.09761738  0.09839402  0.09127491
   0.34997779  0.10364476  0.09125977
   0.02579201  0.59465961  0.08969361
   0.27458404  0.60306418  0.08994988
   0.22548484  0.39914725  0.03232743
   0.47296218  0.40027735  0.03313545
   0.15077183  0.89830252  0.03295061
   0.40130003  0.90533744  0.03298379
   0.59724042  0.10107662  0.09189818
   0.85226296  0.10074936  0.09135367
   0.52449196  0.59870007  0.09008372
   0.77464529  0.59902349  0.09273640
   0.72420230  0.39698883  0.03480347
   0.97606326  0.40065981  0.03224347
   0.65147682  0.89760923  0.03382861
   0.89965089  0.89957652  0.03132217
   0.32974728  0.32588747  0.19568195
   0.26065442  0.33795328  0.23672958
   0.17885977  0.51846696  0.15878704
   0.14153068  0.36556620  0.16369451
   0.32567169  0.57364059  0.24069543
   0.39628186  0.47981505  0.23962385
   0.40399045  0.55424092  0.15507235
   0.35691861  0.69344037  0.15819026
   0.10753254  0.69884636  0.12529190
   0.19257229  0.69808252  0.12412104
   0.71937713  0.83432635  0.15703672
   0.80470537  0.81443560  0.15548981
   0.04703892  0.06040259  0.09116095
   0.29754671  0.06250634  0.09159288
   0.17089452  0.19212213  0.09105412
   0.42066086  0.19032189  0.09100401
   0.07764842  0.56245788  0.09181816
   0.32721819  0.56207135  0.09123291
   0.20407414  0.69082941  0.09092988
   0.45390208  0.69105951  0.09144739
   0.04652563  0.30933997  0.03337598
   0.29591813  0.30832546  0.03331182
   0.17285994  0.43761345  0.03360768
   0.42335714  0.43766831  0.03325649
   0.07936356  0.80813246  0.03299641
   0.32846806  0.80945358  0.03344680
   0.20198106  0.93815988  0.03337940
   0.45208466  0.93747957  0.03283763
   0.54778128  0.06212394  0.09100151
   0.79760152  0.06140328  0.09109052
   0.67157648  0.19166833  0.09088427
   0.92145492  0.19057738  0.09130950
   0.57645484  0.56275227  0.09134509
   0.82726296  0.56263265  0.09116956
   0.70378511  0.69122240  0.09131693
   0.95371593  0.69157980  0.09153000
   0.54580451  0.30859015  0.03317646
   0.79667636  0.30902472  0.03350015
   0.67262060  0.43821365  0.03297339
   0.92257523  0.43819567  0.03331392
   0.57901985  0.80852652  0.03363049
   0.82957210  0.80865708  0.03352560
   0.70180903  0.93847969  0.03297715
   0.95303697  0.93756987  0.03306065
   0.55045187  0.36051186  0.20902026
   0.66134373  0.34005978  0.13752164
   0.61030684  0.26000269  0.20879461
   0.60962856  0.46181606  0.13710611
   0.28930318  0.38404568  0.20687794
   0.15671326  0.44154681  0.13613415
   0.38176058  0.56808924  0.23954320
   0.35330280  0.59330755  0.15717503
   0.15215832  0.71130462  0.14528214
   0.75844983  0.80843783  0.13515841
   0.49528277  0.35946003  0.13365175
   0.60557488  0.35961004  0.16968006
Direct configuration=     3
   0.11060074  0.35866243  0.09075723
   0.35997949  0.36064003  0.09112500
   0.01453091  0.86018520  0.09112625
   0.26405825  0.85949325  0.09142501
   0.23539742  0.13923577  0.03321324
   0.48547410  0.14094909  0.03400688
   0.13972550  0.64075093  0.03336134
   0.38965875  0.63949472  0.03343554
   0.61071381  0.35968501  0.09089906
   0.86048144  0.35998117  0.09151701
   0.51481605  0.86061994  0.09119064
   0.76449821  0.86124024  0.09058127
   0.73575799  0.14116952  0.03397108
   0.98564533  0.14003335  0.03319719
   0.63931310  0.63866843  0.03302839
   0.88949691  0.63908987  0.03354493
   0.09562595  0.09627723  0.09124481
   0.34967390  0.10621159  0.09122308
   0.02623266  0.58875087  0.08797484
   0.27442382  0.60518724  0.08859189
   0.22582921  0.39903339  0.03145455
   0.47167024  0.40079981  0.03293915
   0.15143230  0.89739728  0.03263280
   0.40195064  0.91093009  0.03273389
   0.59506989  0.10172188  0.09247717
   0.85410265  0.10043683  0.09136097
   0.52348846  0.59698744  0.08881993
   0.77431930  0.59721714  0.09404641
   0.72333879  0.39513482  0.03625518
   0.97687645  0.40212951  0.03125418
   0.65267066  0.89606729  0.03434225
   0.89954500  0.89998989  0.02946420
   0.32910189  0.32899807  0.19504672
   0.26197657  0.33720432  0.23701052
   0.17949407  0.51751514  0.16077191
   0.14377182  0.36220631  0.16512824
   0.32587940  0.57250310  0.24100049
   0.39552839  0.48396019  0.24103013
   0.40473951  0.55588253  0.15440652
   0.35756089  0.69294094  0.15842241
   0.10973836  0.70004412  0.12499299
   0.19217571  0.69684204  0.13054515
   0.71643277  0.83409958  0.15827009
   0.80610393  0.81312814  0.15710370
   0.04629239  0.05857597  0.09101469
   0.29734961  0.06281240  0.09187897
   0.17062275  0.19298573  0.09077910
   0.42017629  0.18937913  0.09068608
   0.07802180  0.56277290  0.09229758
   0.32716893  0.56189551  0.09104113
   0.20464287  0.69023061  0.09000622
   0.45396276  0.69086811  0.09157263
   0.04687397  0.30991443  0.03352261
   0.29565926  0.30788386  0.03338803
   0.17295589  0.43744992  0.03395566
   0.42390210  0.43759235  0.03325966
   0.07989341  0.80748210  0.03277108
   0.32808613  0.81013266  0.03366838
   0.20173492  0.93853811  0.03351214
   0.45198189  0.93721559  0.03242795
   0.54775194  0.06201020  0.09070427
   0.79747673  0.06066455  0.09088271
   0.67204294  0.19186459  0.09038157
   0.92174102  0.18991485  0.09129345
   0.57560449  0.56365796  0.09121573
   0.82729461  0.56304774  0.09103917
   0.70362860  0.69097471  0.09125397
   0.95359356  0.69191138  0.09172896
   0.54542764  0.30838595  0.03311203
   0.79719858  0.30929633  0.03377742
   0.67250163  0.43866052  0.03268470
   0.92240121  0.43860550  0.03338217
   0.57919463  0.80827195  0.03404222
   0.83033323  0.80849628  0.03379398
   0.70137938  0.93921735  0.03267565
   0.95382672  0.93734614  0.03286639
   0.54988023  0.36172445  0.20910357
   0.66308311  0.33803440  0.13769512
   0.61045958  0.25978788  0.20862066
   0.60863402  0.46543786  0.13690084
   0.28932438  0.38500259  0.20657462
   0.15728941  0.44203594  0.13595865
   0.38178427  0.56759951  0.23951728
   0.35388469  0.59367812  0.15732688
   0.15181825  0.71263685  0.14573729
   0.75822378  0.80687933  0.13702758
   0.49498666  0.35904844  0.13376864
   0.60532863  0.35900037  0.16963172
Direct configuration=     4
   0.11063849  0.35797130  0.09038071
   0.35975093  0.36101158  0.09099767
   0.01451651  0.86033022  0.09099583
   0.26382121  0.85932502  0.09143947
   0.23537068  0.13881094  0.03324068
   0.48548519  0.14137297  0.03442173
   0.13981167  0.64106234  0.03344185
   0.38970968  0.63919950  0.03356793
   0.61072802  0.35944736  0.09047193
   0.86049675  0.36002229  0.09157682
   0.51495101  0.86097884  0.09109016
   0.76454728  0.86249815  0.08972022
   0.73590129  0.14169752  0.03437497
   0.98573934  0.13999213  0.03321106
   0.63919548  0.63796458  0.03295431
   0.88947167  0.63859323  0.03373608
   0.09443496  0.09461769  0.09120912
   0.34906115  0.10826748  0.09119088
   0.02613756  0.58316428  0.08615140
   0.27450896  0.60699661  0.08725078
   0.22596821  0.39896704  0.03069228
   0.47189444  0.40031197  0.03267646
   0.15181171  0.89649716  0.03230962
   0.40123833  0.91567756  0.03254310
   0.59417281  0.10317334  0.09305456
   0.85531895  0.09975293  0.09130211
   0.52188478  0.59564782  0.08752694
   0.77403371  0.59540993  0.09517520
   0.72245109  0.39386057  0.03757177
   0.97727778  0.40372759  0.03034602
   0.65326895  0.89448809  0.03480824
   0.89985088  0.90057532  0.02777517
   0.32886286  0.33130859  0.19433753
   0.26405180  0.33711927  0.23655919
   0.17935813  0.51554249  0.16199679
   0.14679329  0.36094976  0.16599607
   0.32729077  0.57074512  0.24124602
   0.39568091  0.48130826  0.24258019
   0.40540678  0.55794518  0.15371636
   0.35854869  0.69193025  0.15867300
   0.11110744  0.70011245  0.12430678
   0.19641239  0.69366660  0.13663218
   0.71220360  0.83420852  0.16018847
   0.80843669  0.81153139  0.15932724
   0.04547821  0.05665403  0.09085019
   0.29714759  0.06306236  0.09214509
   0.17032541  0.19394766  0.09046255
   0.41968721  0.18853104  0.09033561
   0.07839179  0.56307293  0.09272850
   0.32711316  0.56161409  0.09071413
   0.20547112  0.68960616  0.08872475
   0.45403759  0.69078649  0.09166157
   0.04718495  0.31035916  0.03370874
   0.29536409  0.30731624  0.03349689
   0.17302530  0.43737136  0.03430565
   0.42431813  0.43766884  0.03327681
   0.08044481  0.80668946  0.03259144
   0.32771663  0.81067508  0.03393320
   0.20153609  0.93900803  0.03366612
   0.45200057  0.93709046  0.03203813
   0.54760575  0.06175523  0.09039673
   0.79737460  0.05988375  0.09066429
   0.67253711  0.19193946  0.08977436
   0.92199569  0.18936094  0.09124108
   0.57472108  0.56485211  0.09088976
   0.82735412  0.56337481  0.09090094
   0.70340041  0.69065130  0.09109523
   0.95349002  0.69236366  0.09188690
   0.54501774  0.30803124  0.03307514
   0.79769870  0.30945018  0.03409600
   0.67237783  0.43920131  0.03240498
   0.92222941  0.43908803  0.03346931
   0.57938155  0.80787961  0.03450109
   0.83112471  0.80817911  0.03408032
   0.70100709  0.94007092  0.03237542
   0.95461749  0.93719121  0.03268110
   0.54889826  0.36347559  0.20934819
   0.66575089  0.33528646  0.13797045
   0.61091075  0.25887699  0.20858592
   0.60753483  0.47065856  0.13686432
   0.28925235  0.38592338  0.20632015
   0.15801408  0.44255019  0.13603657
   0.38171559  0.56758672  0.23954175
   0.35446505  0.59414795  0.15754020
   0.15101033  0.71427254  0.14660176
   0.75797478  0.80433307  0.13982613
   0.49465029  0.35862074  0.13387729
   0.60496672  0.35812068  0.16964155
Direct configuration=     5
   0.11066345  0.35722453  0.08993656
   0.35953450  0.36137111  0.09084051
   0.01449098  0.86045940  0.09083170
   0.26358356  0.85916239  0.09141681
   0.23535055  0.13840933  0.03330462
   0.48550111  0.14181229  0.03486455
   0.13989083  0.64138215  0.03354398
   0.38975102  0.63892652  0.03373163
   0.61069327  0.35912662  0.08993087
   0.86051889  0.36005050  0.09160030
   0.51508199  0.86131948  0.09095348
   0.76461726  0.86394211  0.08866735
   0.73604409  0.14223478  0.03481308
   0.98583696  0.13995991  0.03325631
   0.63907192  0.63728869  0.03291186
   0.88944052  0.63811780  0.03396269
   0.09413481  0.09348923  0.09118472
   0.34816866  0.10973753  0.09117314
   0.02564669  0.57796908  0.08428028
   0.27482850  0.60842269  0.08596085
   0.22586227  0.39892367  0.03007456
   0.47364979  0.39878202  0.03234447
   0.15184546  0.89556477  0.03198024
   0.39921739  0.91960595  0.03243628
   0.59461924  0.10551304  0.09365414
   0.85582581  0.09876552  0.09117942
   0.51973935  0.59469257  0.08624504
   0.77384576  0.59371292  0.09608430
   0.72155763  0.39327514  0.03870740
   0.97715578  0.40542893  0.02956258
   0.65316759  0.89279207  0.03522330
   0.90070219  0.90134242  0.02632607
   0.32919980  0.33268589  0.19348474
   0.26667854  0.33753479  0.23553201
   0.17849650  0.51261888  0.16243156
   0.15051674  0.36193441  0.16614101
   0.32931781  0.56852728  0.24143930
   0.39641226  0.47437873  0.24429509
   0.40598917  0.56037174  0.15300889
   0.35985865  0.69102172  0.15894616
   0.11167722  0.69878024  0.12303572
   0.20313836  0.68917027  0.14252201
   0.70797860  0.83417980  0.16227010
   0.81060325  0.80986546  0.16180349
   0.04459665  0.05463926  0.09067223
   0.29693979  0.06325254  0.09238888
   0.17000426  0.19500154  0.09010815
   0.41919656  0.18778665  0.08995436
   0.07874452  0.56335696  0.09310560
   0.32705083  0.56122932  0.09025481
   0.20648609  0.68899668  0.08720888
   0.45412681  0.69081371  0.09171206
   0.04745605  0.31067456  0.03393109
   0.29503490  0.30661905  0.03363799
   0.17306870  0.43737987  0.03465133
   0.42459939  0.43790290  0.03330682
   0.08101796  0.80576045  0.03245568
   0.32736649  0.81107843  0.03424040
   0.20139021  0.93956911  0.03384175
   0.45214010  0.93710049  0.03166482
   0.54734252  0.06135912  0.09007667
   0.79730333  0.05906496  0.09043466
   0.67305123  0.19188857  0.08905893
   0.92221290  0.18890889  0.09115172
   0.57379924  0.56632674  0.09036246
   0.82743917  0.56361136  0.09075856
   0.70310707  0.69027775  0.09084076
   0.95340765  0.69293850  0.09200297
   0.54457534  0.30751201  0.03306630
   0.79817497  0.30949148  0.03445550
   0.67224924  0.43982829  0.03213899
   0.92206911  0.43964192  0.03357268
   0.57957820  0.80734656  0.03500506
   0.83193905  0.80772823  0.03438815
   0.70070608  0.94104168  0.03207665
   0.95539661  0.93710050  0.03250475
   0.54753004  0.36572331  0.20973181
   0.66910814  0.33206955  0.13833765
   0.61163404  0.25731461  0.20868537
   0.60639373  0.47700985  0.13701529
   0.28909074  0.38682620  0.20611188
   0.15887879  0.44305705  0.13636615
   0.38161366  0.56788626  0.23961445
   0.35504370  0.59467775  0.15781134
   0.14994182  0.71616566  0.14776501
   0.75773889  0.80124909  0.14323225
   0.49427716  0.35817827  0.13397803
   0.60453320  0.35704281  0.16966965
Direct configuration=     6
   0.11067937  0.35643221  0.08943161
   0.35933065  0.36171998  0.09065497
   0.01445506  0.86056962  0.09063502
   0.26334573  0.85900334  0.09135784
   0.23533634  0.13803165  0.03340506
   0.48552089  0.14226254  0.03533322
   0.13996360  0.64170830  0.03366725
   0.38978306  0.63867454  0.03392657
   0.61062785  0.35874173  0.08930812
   0.86054777  0.36006558  0.09158863
   0.51520845  0.86164220  0.09078154
   0.76469635  0.86547520  0.08749740
   0.73618687  0.14277913  0.03528342
   0.98593831  0.13993640  0.03333258
   0.63894377  0.63664138  0.03290215
   0.88940421  0.63766604  0.03422303
   0.09443425  0.09267638  0.09118064
   0.34707777  0.11060668  0.09117683
   0.02515555  0.57317537  0.08246211
   0.27533646  0.60940936  0.08475236
   0.22549896  0.39888306  0.02963177
   0.47618360  0.39676246  0.03195459
   0.15158554  0.89464276  0.03164758
   0.39668541  0.92295111  0.03242483
   0.59579007  0.10819470  0.09424357
   0.85559162  0.09753786  0.09100276
   0.51725319  0.59410432  0.08503279
   0.77380697  0.59222459  0.09674657
   0.72070010  0.39344074  0.03962867
   0.97647665  0.40718355  0.02893878
   0.65253266  0.89113270  0.03557101
   0.90216219  0.90228395  0.02517483
   0.32992667  0.33351628  0.19251332
   0.26946993  0.33787898  0.23434558
   0.17709830  0.50940966  0.16222697
   0.15483090  0.36500712  0.16551328
   0.33087156  0.56597256  0.24160502
   0.39707037  0.46775867  0.24601290
   0.40650342  0.56302892  0.15229579
   0.36145582  0.69084030  0.15925246
   0.11204890  0.69596860  0.12137686
   0.20873846  0.68504645  0.14833514
   0.70476934  0.83359936  0.16421418
   0.81176629  0.80828185  0.16432000
   0.04367828  0.05255607  0.09048177
   0.29671967  0.06338343  0.09261038
   0.16965548  0.19613588  0.08972008
   0.41870764  0.18715441  0.08954144
   0.07905409  0.56362762  0.09342147
   0.32698289  0.56074127  0.08966455
   0.20763700  0.68843265  0.08553566
   0.45422678  0.69094286  0.09172271
   0.04768813  0.31086395  0.03418948
   0.29467147  0.30579374  0.03381003
   0.17309009  0.43747326  0.03499415
   0.42478826  0.43825866  0.03334909
   0.08161172  0.80469893  0.03236108
   0.32704088  0.81135328  0.03458700
   0.20129336  0.94021601  0.03403696
   0.45235209  0.93722532  0.03130845
   0.54699846  0.06085104  0.08974309
   0.79726942  0.05821853  0.09019652
   0.67357054  0.19170880  0.08823703
   0.92239191  0.18855383  0.09102493
   0.57283767  0.56805525  0.08963806
   0.82754467  0.56374649  0.09061490
   0.70275642  0.68988334  0.09049384
   0.95334423  0.69363533  0.09207629
   0.54410398  0.30683465  0.03308611
   0.79862232  0.30941046  0.03485393
   0.67211062  0.44054224  0.03188763
   0.92192833  0.44026043  0.03368932
   0.57978453  0.80667942  0.03555093
   0.83276739  0.80715704  0.03471810
   0.70046493  0.94212059  0.03178743
   0.95615597  0.93707780  0.03233114
   0.54582997  0.36840658  0.21022381
   0.67291556  0.32862512  0.13878257
   0.61260121  0.25517654  0.20890469
   0.60526828  0.48405281  0.13735155
   0.28887477  0.38771143  0.20592492
   0.15986580  0.44349623  0.13692374
   0.38158525  0.56820923  0.23974249
   0.35561976  0.59525217  0.15813488
   0.14884934  0.71819583  0.14912901
   0.75753539  0.79795463  0.14700018
   0.49387060  0.35772267  0.13407205
   0.60407279  0.35582720  0.16969200
Direct configuration=     7
   0.11069197  0.35560701  0.08887218
   0.35913884  0.36205649  0.09044038
   0.01440867  0.86065684  0.09040730
   0.26310692  0.85884359  0.09126340
   0.23532805  0.13767772  0.03354115
   0.48554320  0.14271726  0.03582449
   0.14003109  0.64203903  0.03381082
   0.38980593  0.63844099  0.03415083
   0.61054814  0.35831615  0.08863150
   0.86058334  0.36006733  0.09154237
   0.51533083  0.86194536  0.09057583
   0.76477814  0.86703207  0.08625965
   0.73632970  0.14332693  0.03578212
   0.98604208  0.13992179  0.03343875
   0.63881067  0.63602499  0.03292473
   0.88936176  0.63724070  0.03451634
   0.09486353  0.09182676  0.09119700
   0.34592116  0.11093561  0.09120886
   0.02507206  0.56887277  0.08083272
   0.27595246  0.60994489  0.08364709
   0.22490284  0.39881337  0.02938090
   0.47872399  0.39480002  0.03153508
   0.15117766  0.89385160  0.03132091
   0.39449721  0.92580854  0.03250420
   0.59696476  0.11053539  0.09475292
   0.85462737  0.09610122  0.09078265
   0.51466810  0.59390736  0.08394949
   0.77394469  0.59101749  0.09714815
   0.71993641  0.39437475  0.04031867
   0.97528649  0.40892115  0.02849044
   0.65164790  0.88980051  0.03582082
   0.90418359  0.90335001  0.02434286
   0.33067853  0.33442894  0.19150691
   0.27195139  0.33722828  0.23360299
   0.17553312  0.50744129  0.16181595
   0.15958469  0.36951970  0.16424136
   0.33092377  0.56310392  0.24176992
   0.39735280  0.46392612  0.24757682
   0.40700340  0.56575120  0.15157660
   0.36328251  0.69171612  0.15960359
   0.11291773  0.69187748  0.11978843
   0.21187894  0.68218353  0.15386247
   0.70323224  0.83217506  0.16592708
   0.81145305  0.80686798  0.16681893
   0.04275611  0.05043376  0.09027880
   0.29648032  0.06345141  0.09280861
   0.16927855  0.19733462  0.08930301
   0.41822542  0.18663163  0.08909676
   0.07929519  0.56388410  0.09367135
   0.32691090  0.56015784  0.08895129
   0.20888733  0.68793051  0.08374999
   0.45433673  0.69116518  0.09169417
   0.04788054  0.31092796  0.03448195
   0.29427830  0.30484853  0.03400891
   0.17308969  0.43765367  0.03533009
   0.42493238  0.43869782  0.03340392
   0.08222328  0.80351060  0.03230706
   0.32675006  0.81151251  0.03497240
   0.20123261  0.94094501  0.03424972
   0.45258239  0.93745217  0.03096828
   0.54662487  0.06028804  0.08940220
   0.79727355  0.05735911  0.08994826
   0.67408963  0.19140157  0.08731617
   0.92253047  0.18829928  0.09086368
   0.57182732  0.57000528  0.08872066
   0.82766534  0.56378108  0.09047172
   0.70236100  0.68949910  0.09006155
   0.95329820  0.69445039  0.09210700
   0.54360360  0.30601231  0.03313089
   0.79904062  0.30921020  0.03529341
   0.67196200  0.44132941  0.03165176
   0.92180297  0.44094476  0.03381524
   0.58000414  0.80588681  0.03613690
   0.83359740  0.80646677  0.03507258
   0.70026845  0.94328257  0.03151215
   0.95689001  0.93712612  0.03215666
   0.54385771  0.37143499  0.21079435
   0.67698855  0.32514553  0.13929140
   0.61377281  0.25255626  0.20922473
   0.60420327  0.49144749  0.13785184
   0.28865364  0.38860524  0.20571584
   0.16094554  0.44379062  0.13765513
   0.38171283  0.56840087  0.23993345
   0.35618904  0.59585265  0.15850666
   0.14780914  0.72028697  0.15063053
   0.75736172  0.79464109  0.15096281
   0.49343433  0.35725555  0.13416046
   0.60361762  0.35451973  0.16970738
Direct configuration=     8
   0.11070448  0.35476158  0.08826544
   0.35895887  0.36237900  0.09019735
   0.01435239  0.86071525  0.09015009
   0.26286670  0.85867960  0.09113417
   0.23532644  0.13734850  0.03371189
   0.48556698  0.14316968  0.03633709
   0.14009484  0.64237254  0.03397349
   0.38982035  0.63822504  0.03440233
   0.61046510  0.35786886  0.08792408
   0.86062470  0.36005550  0.09146217
   0.51544802  0.86222894  0.09033804
   0.76485973  0.86857408  0.08498451
   0.73647482  0.14387691  0.03630567
   0.98614869  0.13991866  0.03357527
   0.63867461  0.63543927  0.03297904
   0.88931388  0.63684361  0.03484195
   0.09501624  0.09065243  0.09123225
   0.34486866  0.11085067  0.09127179
   0.02566334  0.56519977  0.07951418
   0.27656084  0.61006145  0.08266530
   0.22413681  0.39866941  0.02932172
   0.48081452  0.39318527  0.03112031
   0.15079268  0.89332689  0.03101580
   0.39319279  0.92813265  0.03266327
   0.59765474  0.11204249  0.09511789
   0.85299176  0.09446605  0.09053263
   0.51218419  0.59418675  0.08304268
   0.77425861  0.59015352  0.09728771
   0.71933756  0.39603615  0.04077892
   0.97375475  0.41051532  0.02820848
   0.65077659  0.88907619  0.03593895
   0.90658551  0.90442523  0.02381374
   0.33115318  0.33593658  0.19054105
   0.27386946  0.33494593  0.23368863
   0.17420207  0.50886108  0.16184073
   0.16466204  0.37393211  0.16275960
   0.32953690  0.55993798  0.24192012
   0.39721216  0.46377496  0.24889765
   0.40752766  0.56837962  0.15085404
   0.36523958  0.69340349  0.16000901
   0.11467040  0.68685780  0.11870399
   0.21238823  0.68087221  0.15894029
   0.70371232  0.82974895  0.16745772
   0.80955951  0.80569926  0.16937527
   0.04186511  0.04830725  0.09006251
   0.29621434  0.06345214  0.09298338
   0.16886444  0.19859073  0.08885521
   0.41775483  0.18622451  0.08862284
   0.07945810  0.56411906  0.09384890
   0.32684960  0.55947577  0.08812345
   0.21020044  0.68750202  0.08188768
   0.45445393  0.69146938  0.09162474
   0.04803375  0.31087217  0.03480497
   0.29385497  0.30378066  0.03423509
   0.17306229  0.43792505  0.03565466
   0.42506174  0.43919507  0.03346956
   0.08284566  0.80220376  0.03229149
   0.32649286  0.81157129  0.03539370
   0.20119611  0.94174355  0.03447697
   0.45279228  0.93777116  0.03064395
   0.54625890  0.05971224  0.08906169
   0.79731271  0.05649033  0.08968795
   0.67459686  0.19098120  0.08630861
   0.92262872  0.18815359  0.09066975
   0.57077226  0.57212973  0.08762417
   0.82779958  0.56371594  0.09032971
   0.70193705  0.68915076  0.08954830
   0.95327129  0.69537577  0.09209374
   0.54307755  0.30506316  0.03319819
   0.79942889  0.30889041  0.03576918
   0.67180130  0.44217898  0.03143279
   0.92168331  0.44169764  0.03395030
   0.58023620  0.80497641  0.03675658
   0.83441737  0.80566369  0.03545336
   0.70009690  0.94449424  0.03125487
   0.95760573  0.93725481  0.03198160
   0.54168059  0.37473146  0.21140572
   0.68118355  0.32174160  0.13984471
   0.61509984  0.24957169  0.20961140
   0.60322552  0.49894030  0.13849704
   0.28846506  0.38951357  0.20545924
   0.16207850  0.44387619  0.13847383
   0.38199422  0.56840149  0.24019440
   0.35675082  0.59650150  0.15891703
   0.14683917  0.72239222  0.15222124
   0.75721475  0.79140615  0.15501216
   0.49297260  0.35678029  0.13424457
   0.60317847  0.35315815  0.16972169
Direct configuration=     9
   0.11072067  0.35390695  0.08761977
   0.35878981  0.36268811  0.08992703
   0.01428599  0.86074180  0.08986615
   0.26262484  0.85850910  0.09097011
   0.23533141  0.13704650  0.03391541
   0.48558923  0.14361385  0.03686846
   0.14015457  0.64270851  0.03415380
   0.38982676  0.63802555  0.03467971
   0.61038795  0.35741633  0.08720389
   0.86067101  0.36002965  0.09134947
   0.51555992  0.86249132  0.09007005
   0.76494090  0.87007982  0.08368806
   0.73662362  0.14442534  0.03684867
   0.98625742  0.13992894  0.03374203
   0.63853669  0.63488728  0.03306538
   0.88926108  0.63647572  0.03519799
   0.09463368  0.08898259  0.09128405
   0.34409065  0.11049763  0.09136720
   0.02699198  0.56230830  0.07858717
   0.27705897  0.60980153  0.08181431
   0.22329949  0.39839328  0.02943892
   0.48223959  0.39203069  0.03073901
   0.15057590  0.89317985  0.03074762
   0.39303599  0.92984623  0.03288236
   0.59760072  0.11244586  0.09529895
   0.85084764  0.09267733  0.09026932
   0.50993372  0.59505970  0.08234315
   0.77472166  0.58967551  0.09717792
   0.71898830  0.39833087  0.04102384
   0.97218476  0.41179659  0.02805810
   0.65008938  0.88913084  0.03590018
   0.90899532  0.90528968  0.02351729
   0.33120447  0.33830529  0.18965683
   0.27537732  0.33148714  0.23436927
   0.17311090  0.51461503  0.16254334
   0.17013586  0.37569679  0.16189144
   0.32774966  0.55667794  0.24200797
   0.39673254  0.46730555  0.24994020
   0.40808093  0.57080319  0.15012712
   0.36720177  0.69530468  0.16047515
   0.11737801  0.68133152  0.11843419
   0.21034368  0.68121623  0.16345489
   0.70620311  0.82638763  0.16894551
   0.80643406  0.80492929  0.17215709
   0.04103796  0.04620941  0.08983688
   0.29590894  0.06337695  0.09313817
   0.16841803  0.19988875  0.08838070
   0.41730157  0.18593107  0.08811949
   0.07954284  0.56432740  0.09395144
   0.32681063  0.55870431  0.08719291
   0.21156013  0.68716196  0.07997015
   0.45457674  0.69185067  0.09151386
   0.04814746  0.31069405  0.03515766
   0.29340739  0.30259200  0.03448594
   0.17299770  0.43829369  0.03596898
   0.42519668  0.43973274  0.03354680
   0.08347391  0.80078734  0.03231137
   0.32627714  0.81153150  0.03584765
   0.20116918  0.94260323  0.03471709
   0.45296036  0.93817791  0.03033807
   0.54592280  0.05915444  0.08872565
   0.79737683  0.05561125  0.08941858
   0.67507993  0.19047661  0.08522665
   0.92268874  0.18812226  0.09044555
   0.56968310  0.57436787  0.08636845
   0.82794656  0.56354873  0.09019086
   0.70149445  0.68885463  0.08896214
   0.95326639  0.69640517  0.09203524
   0.54252380  0.30400361  0.03328494
   0.79978674  0.30845297  0.03627892
   0.67162180  0.44307852  0.03122986
   0.92154905  0.44252164  0.03409631
   0.58048084  0.80397119  0.03740083