unknown system                          
           1
     4.447820    0.000000    0.000000
     0.000000    8.895630    0.000000
     0.000000    0.000000   28.807000
   Mn   H    O    Zn   S 
  16  23  31   1   1
Direct configuration=     1
   0.49999955  0.00000000  0.25992825
   0.00000000  0.25000006  0.25992825
   0.00000000  0.00000000  0.18272802
   0.49999955  0.25000006  0.18272802
   0.49999955  0.00000000  0.10552775
   0.00000000  0.25000006  0.10552775
   0.00000000  0.00000000  0.02832752
   0.49999955  0.25000006  0.02832752
   0.49999955  0.50000000  0.25992825
   0.00000000  0.75000006  0.25992825
   0.00000000  0.50000000  0.18272802
   0.49999955  0.75000006  0.18272802
   0.49999955  0.50000000  0.10552775
   0.00000000  0.75000006  0.10552775
   0.00000000  0.50000000  0.02832752
   0.49999955  0.75000006  0.02832752
   0.49999955  0.50000000  0.29464203
   0.11241462  0.68255121  0.31936682
   0.11241462  0.81744890  0.31936682
   0.14963375  0.01939627  0.37495668
   0.19320161  0.86232734  0.34639331
   0.71662477  0.91891794  0.35498841
   0.81000468  0.87801808  0.40833888
   0.92595249  0.11326618  0.44064491
   0.69620511  0.25262955  0.45080661
   0.54240504  0.23501719  0.47747735
   0.32285479  0.14226469  0.51275016
   0.36913814  0.46892204  0.50473236
   0.04801836  0.38308698  0.49746499
   0.25516635  0.18031134  0.36688742
   0.57370150  0.24327777  0.38730104
   0.54890373  0.75015935  0.50606568
   0.52667666  0.92953776  0.49450779
   0.17513074  0.67189867  0.46161544
   0.00237442  0.53126029  0.43679456
   0.23685064  0.50734878  0.37022574
   0.99922659  0.63628591  0.35342535
   0.53532427  0.89320340  0.40041462
   0.42093722  0.71904812  0.39732850
   0.00000000  0.00000000  0.25992825
   0.49999955  0.25000006  0.25992825
   0.49999955  0.00000000  0.18272802
   0.00000000  0.25000006  0.18272802
   0.00000000  0.00000000  0.10552775
   0.49999955  0.25000006  0.10552775
   0.49999955  0.00000000  0.02832752
   0.00000000  0.25000006  0.02832752
   0.00000000  0.50000000  0.25992825
   0.49999955  0.75000006  0.25992825
   0.49999955  0.50000000  0.18272802
   0.00000000  0.75000006  0.18272802
   0.00000000  0.50000000  0.10552775
   0.49999955  0.75000006  0.10552775
   0.49999955  0.50000000  0.02832752
   0.00000000  0.75000006  0.02832752
   0.11241462  0.75000006  0.29464203
   0.19266517  0.97444352  0.34383841
   0.66652023  0.93576430  0.38842903
   0.90669137  0.22518540  0.44202208
   0.48895369  0.13302779  0.48952630
   0.14607403  0.47836117  0.50797178
   0.35474255  0.26561210  0.38346937
   0.43599201  0.84503009  0.51262224
   0.01836765  0.64328384  0.43835054
   0.04806512  0.52660576  0.35233204
   0.59880211  0.78714818  0.39436755
   0.05620731  0.39345162  0.34324133
   0.05620731  0.20234655  0.34324133
   0.16862193  0.39345162  0.28075652
   0.16862193  0.20234655  0.28075652
   0.49999955  0.05620737  0.31199892
   0.11241462  0.30620743  0.30852755
Direct configuration=     2
   0.50063486  0.00038995  0.26006437
  -0.00222872  0.25055695  0.25961573
  -0.00180165 -0.00016007  0.18273566
   0.49993414  0.24962638  0.18273068
   0.49999955  0.00000000  0.10552775
   0.00000000  0.25000006  0.10552775
   0.00000000  0.00000000  0.02832752
   0.49999955  0.25000006  0.02832752
   0.50063768  0.50035925  0.25991493
  -0.00131775  0.75038095  0.25987255
  -0.00119689  0.49892421  0.18302664
   0.49867059  0.75037718  0.18284263
   0.49999955  0.50000000  0.10552775
   0.00000000  0.75000006  0.10552775
   0.00000000  0.50000000  0.02832752
   0.49999955  0.75000006  0.02832752
   0.50756297  0.50644112  0.29678804
   0.11651077  0.67818385  0.31761434
   0.10421030  0.82045791  0.31865578
   0.14234690  0.02112197  0.37591659
   0.19746238  0.86494873  0.34672649
   0.70952630  0.91660986  0.35310961
   0.81222927  0.87876727  0.40838413
   0.93077997  0.10940703  0.43829010
   0.68766453  0.24999888  0.44965254
   0.54797058  0.23254111  0.47837815
   0.31209874  0.14794430  0.51197422
   0.37690758  0.46312115  0.50278228
   0.04487630  0.38084398  0.49697145
   0.26000244  0.18097010  0.36830436
   0.57426145  0.23607652  0.38699926
   0.55117083  0.75696697  0.50488365
   0.53502078  0.92714153  0.49476120
   0.17022468  0.67459055  0.46241744
  -0.00097241  0.53375199  0.43653884
   0.23475089  0.50320093  0.37256657
   0.98828585  0.63694377  0.35203197
   0.51540702  0.89301443  0.40333890
   0.41239343  0.71887397  0.39749584
   0.00040527  0.00190525  0.25999649
   0.49896454  0.24990774  0.25982834
   0.49800926  0.00070266  0.18285007
   0.00024858  0.24942318  0.18236927
   0.00000000  0.00000000  0.10552775
   0.49999955  0.25000006  0.10552775
   0.49999955  0.00000000  0.02832752
   0.00000000  0.25000006  0.02832752
  -0.00223541  0.50123711  0.25987640
   0.49972073  0.75018577  0.25986220
   0.50231037  0.49988861  0.18286034
  -0.00041005  0.75112803  0.18321035
   0.00000000  0.50000000  0.10552775
   0.49999955  0.75000006  0.10552775
   0.49999955  0.50000000  0.02832752
   0.00000000  0.75000006  0.02832752
   0.11529954  0.74882822  0.29536549
   0.19369055  0.97321476  0.34284658
   0.66661616  0.93645525  0.38825192
   0.90631536  0.22484404  0.44193942
   0.48801787  0.13170774  0.48947513
   0.14224868  0.47765075  0.50818535
   0.35614522  0.26667623  0.38325008
   0.43702200  0.84391345  0.51293935
   0.01780812  0.64297677  0.43824614
   0.04748021  0.52708190  0.35201555
   0.59648115  0.78727374  0.39425998
   0.05388725  0.39282372  0.34350968
   0.05613191  0.20221280  0.34314267
   0.17185761  0.39297242  0.28055873
   0.17731970  0.20130402  0.28164727
   0.50010217  0.05626940  0.31202481
   0.11383939  0.30653272  0.30904801
Direct configuration=     3
   0.50135577  0.00045478  0.25997091
  -0.00830500  0.25169411  0.25875658
  -0.00358683 -0.00037460  0.18275869
   0.49987095  0.24931175  0.18274645
   0.49999955  0.00000000  0.10552775
   0.00000000  0.25000006  0.10552775
   0.00000000  0.00000000  0.02832752
   0.49999955  0.25000006  0.02832752
   0.50134591  0.50073097  0.25979344
  -0.00469832  0.75078424  0.25918836
  -0.00239742  0.49790072  0.18332961
   0.49734388  0.75069243  0.18295791
   0.49999955  0.50000000  0.10552775
   0.00000000  0.75000006  0.10552775
   0.00000000  0.50000000  0.02832752
   0.49999955  0.75000006  0.02832752
   0.51816895  0.51474545  0.30607264
   0.12524239  0.66519200  0.31782675
   0.09405147  0.83001681  0.31895082
   0.13507214  0.02160453  0.37632918
   0.20607540  0.86688448  0.34832383
   0.70395698  0.91608715  0.35045636
   0.82459950  0.87993367  0.40922098
   0.93419671  0.10814108  0.43617548
   0.68509510  0.24666341  0.44762952
   0.55008186  0.22920344  0.47998666
   0.30437668  0.15332001  0.51076029
   0.37780936  0.45749839  0.50101586
   0.04394417  0.37966108  0.49656135
   0.26581928  0.18097394  0.37018792
   0.57378313  0.22972872  0.38683282
   0.55512670  0.76279065  0.50369262
   0.54211709  0.92403973  0.49529173
   0.16301955  0.67628366  0.46306126
  -0.00346877  0.53622373  0.43652195
   0.23199830  0.50205952  0.37520665
   0.97221145  0.63871572  0.35098286
   0.46277289  0.89450026  0.40954481
   0.39791145  0.71905522  0.39758365
   0.00070111  0.00363412  0.26015477
   0.49928275  0.24983109  0.25968561
   0.49604069  0.00127939  0.18299539
   0.00050887  0.24912851  0.18210329
   0.00000000  0.00000000  0.10552775
   0.49999955  0.25000006  0.10552775
   0.49999955  0.00000000  0.02832752
   0.00000000  0.25000006  0.02832752
  -0.00532693  0.50299820  0.25977279
   0.49977579  0.75038579  0.25977747
   0.50461523  0.49990893  0.18297948
  -0.00080216  0.75197583  0.18367190
   0.00000000  0.50000000  0.10552775
   0.49999955  0.75000006  0.10552775
   0.49999955  0.50000000  0.02832752
   0.00000000  0.75000006  0.02832752
   0.12436261  0.74762814  0.29797864
   0.19429015  0.97199261  0.34194015
   0.66810441  0.93814992  0.38791323
   0.90594651  0.22450436  0.44185455
   0.48679130  0.13040622  0.48946810
   0.13875671  0.47681627  0.50839189
   0.35882840  0.26789745  0.38316200
   0.43801783  0.84287961  0.51324156
   0.01736325  0.64278353  0.43813363
   0.04752887  0.52840424  0.35182929
   0.59450929  0.78604329  0.39416274
   0.05014566  0.39239621  0.34411267
   0.05472433  0.20123679  0.34314087
   0.17787546  0.39530703  0.27973408
   0.19733510  0.19541944  0.28351318
   0.50033282  0.05656010  0.31225209
   0.11472643  0.30645849  0.31014669
Direct configuration=     4
   0.50213089  0.00024061  0.25963182
  -0.01585631  0.25291259  0.25769242
  -0.00530123 -0.00058727  0.18279717
   0.49979712  0.24898225  0.18278515
   0.49999955  0.00000000  0.10552775
   0.00000000  0.25000006  0.10552775
   0.00000000  0.00000000  0.02832752
   0.49999955  0.25000006  0.02832752
   0.50210658  0.50110114  0.25965971
  -0.00889676  0.75120166  0.25823619
  -0.00354210  0.49694428  0.18363289
   0.49606630  0.75101691  0.18307293
   0.49999955  0.50000000  0.10552775
   0.00000000  0.75000006  0.10552775
   0.00000000  0.50000000  0.02832752
   0.49999955  0.75000006  0.02832752
   0.52996790  0.52361168  0.31688701
   0.13709872  0.64913215  0.31899465
   0.08108586  0.84091875  0.31954573
   0.12750140  0.02059703  0.37639876
   0.21714781  0.86731827  0.35079622
   0.69883573  0.91646027  0.34739617
   0.83694665  0.88317536  0.40981139
   0.93644850  0.10909961  0.43425926
   0.68751453  0.24283851  0.44500653
   0.55086839  0.22645221  0.48198549
   0.30043425  0.15772216  0.50915964
   0.37113831  0.45267713  0.49958505
   0.04464557  0.37972256  0.49628067
   0.27006867  0.18026966  0.37224043
   0.57167473  0.22486046  0.38678111
   0.56248858  0.76545218  0.50241467
   0.54727904  0.92089189  0.49605711
   0.15360538  0.67676411  0.46342956
  -0.00539202  0.53767195  0.43676515
   0.22777242  0.50439423  0.37774052
   0.95209096  0.64444710  0.35026706
   0.41078018  0.89499698  0.41570291
   0.38641250  0.71721031  0.39765461
   0.00079107  0.00512869  0.26027329
   0.50132691  0.24986246  0.25939460
   0.49416845  0.00193893  0.18314065
   0.00077868  0.24855854  0.18198360
   0.00000000  0.00000000  0.10552775
   0.49999955  0.25000006  0.10552775
   0.49999955  0.00000000  0.02832752
   0.00000000  0.25000006  0.02832752
  -0.00978814  0.50562045  0.25958545
   0.50023474  0.75057854  0.25968857
   0.50681348  0.49980840  0.18309519
  -0.00119271  0.75308274  0.18411370
   0.00000000  0.50000000  0.10552775
   0.49999955  0.75000006  0.10552775
   0.49999955  0.50000000  0.02832752
   0.00000000  0.75000006  0.02832752
   0.13571686  0.74647061  0.30139005
   0.19455233  0.97085931  0.34115908
   0.67099652  0.94155505  0.38755879
   0.90555640  0.22415395  0.44177172
   0.48521344  0.12912773  0.48951367
   0.13580099  0.47585615  0.50857812
   0.36277122  0.26919399  0.38320389
   0.43887935  0.84205300  0.51352483
   0.01702752  0.64276308  0.43803450
   0.04819508  0.53030682  0.35175196
   0.59095433  0.78306563  0.39413958
   0.04522285  0.39231775  0.34502758
   0.05208794  0.19939733  0.34325295
   0.18624711  0.39885370  0.27870234
   0.22110699  0.18726966  0.28559210
   0.50070449  0.05704583  0.31266746
   0.11523251  0.30600296  0.31143111
Direct configuration=     5
   0.50291305 -0.00008110  0.25918681
  -0.02348068  0.25394558  0.25662772
  -0.00686783 -0.00074658  0.18285242
   0.49972109  0.24859474  0.18284947
   0.49999955  0.00000000  0.10552775
   0.00000000  0.25000006  0.10552775
   0.00000000  0.00000000  0.02832752
   0.49999955  0.25000006  0.02832752
   0.50298800  0.50142695  0.25957019
  -0.01316322  0.75164064  0.25724262
  -0.00457621  0.49607385  0.18391802
   0.49489236  0.75137431  0.18317780
   0.49999955  0.50000000  0.10552775
   0.00000000  0.75000006  0.10552775
   0.00000000  0.50000000  0.02832752
   0.49999955  0.75000006  0.02832752
   0.54142413  0.53131465  0.32629944
   0.15071168  0.63516722  0.32006889
   0.06715134  0.85001077  0.31986352
   0.12056309  0.01797896  0.37625486
   0.23077199  0.86743185  0.35377179
   0.69473013  0.91770832  0.34476903
   0.84739245  0.88830817  0.40994776
   0.93790898  0.11189937  0.43265590
   0.69194098  0.23884730  0.44219058
   0.55260819  0.22550444  0.48399286
   0.29969606  0.16057748  0.50737891
   0.35799242  0.44921386  0.49862089
   0.04597821  0.38069642  0.49612559
   0.27150852  0.17875834  0.37433443
   0.56897078  0.22176760  0.38685179
   0.57184397  0.76516147  0.50116060
   0.55019888  0.91860575  0.49691219
   0.14355087  0.67635380  0.46362203
  -0.00699806  0.53732279  0.43724987
   0.22265244  0.50976355  0.37991598
   0.92901324  0.65223555  0.35000992
   0.35820413  0.89564330  0.42172584
   0.37966037  0.71450440  0.39774114
   0.00066573  0.00627279  0.26030557
   0.50499007  0.25002447  0.25895467
   0.49245684  0.00299244  0.18326486
   0.00103627  0.24754812  0.18199935
   0.00000000  0.00000000  0.10552775
   0.49999955  0.25000006  0.10552775
   0.49999955  0.00000000  0.02832752
   0.00000000  0.25000006  0.02832752
  -0.01556118  0.50894601  0.25936761
   0.50101658  0.75075139  0.25967577
   0.50879217  0.49926514  0.18320521
  -0.00157348  0.75459299  0.18450776
   0.00000000  0.50000000  0.10552775
   0.49999955  0.75000006  0.10552775
   0.49999955  0.50000000  0.02832752
   0.00000000  0.75000006  0.02832752
   0.14709642  0.74537093  0.30498776
   0.19430880  0.96974197  0.34055086
   0.67487182  0.94577403  0.38719273
   0.90524748  0.22380369  0.44169022
   0.48336721  0.12792074  0.48960648
   0.13354024  0.47482100  0.50872961
   0.36758901  0.27048147  0.38335261
   0.43961131  0.84140402  0.51377858
   0.01678968  0.64293062  0.43794639
   0.04929448  0.53269557  0.35177209
   0.58652244  0.77908245  0.39414789
   0.03951603  0.39263840  0.34617973
   0.04844377  0.19685054  0.34350843
   0.19572296  0.40263188  0.27770269
   0.24394339  0.17867424  0.28751606
   0.50121218  0.05759254  0.31315527
   0.11556559  0.30528611  0.31263244
Direct configuration=     6
   0.50362331 -0.00046522  0.25867779
  -0.03039648  0.25473208  0.25566427
  -0.00821300 -0.00083409  0.18291302
   0.49964688  0.24819639  0.18292218
   0.49999955  0.00000000  0.10552775
   0.00000000  0.25000006  0.10552775
   0.00000000  0.00000000  0.02832752
   0.49999955  0.25000006  0.02832752
   0.50393010  0.50173554  0.25952623
  -0.01703208  0.75207124  0.25636017
  -0.00547807  0.49531855  0.18416025
   0.49387629  0.75171122  0.18326363
   0.49999955  0.50000000  0.10552775
   0.00000000  0.75000006  0.10552775
   0.00000000  0.50000000  0.02832752
   0.49999955  0.75000006  0.02832752
   0.55135994  0.53756218  0.33387327
   0.16543776  0.62473599  0.32076273
   0.05477007  0.85700519  0.31989441
   0.11476817  0.01421378  0.37569680
   0.24597284  0.86813058  0.35670341
   0.69209070  0.91944319  0.34305349
   0.85416602  0.89468847  0.40949981
   0.93863066  0.11608028  0.43146928
   0.69475031  0.23514612  0.43951214
   0.55648824  0.22632454  0.48576483
   0.30019193  0.16171846  0.50569875
   0.34138632  0.44735144  0.49814089
   0.04657514  0.38184690  0.49604145
   0.27023799  0.17715298  0.37639821
   0.56732293  0.22033947  0.38702035
   0.57988051  0.76359929  0.50020220
   0.55132466  0.91789870  0.49771631
   0.13472094  0.67554201  0.46385975
  -0.00845222  0.53572962  0.43793158
   0.21644269  0.51722458  0.38142123
   0.90456761  0.65916591  0.35016683
   0.30961061  0.89669849  0.42704009
   0.37865700  0.71242488  0.39787217
   0.00030232  0.00706152  0.26026138
   0.50951166  0.25026571  0.25842159
   0.49100414  0.00433429  0.18336362
   0.00126924  0.24632163  0.18212678
   0.00000000  0.00000000  0.10552775
   0.49999955  0.25000006  0.10552775
   0.49999955  0.00000000  0.02832752
   0.00000000  0.25000006  0.02832752
  -0.02168653  0.51240809  0.25916556
   0.50202831  0.75089112  0.25974230
   0.51050591  0.49834540  0.18330177
  -0.00187120  0.75627612  0.18482952
   0.00000000  0.50000000  0.10552775
   0.49999955  0.75000006  0.10552775
   0.49999955  0.50000000  0.02832752
   0.00000000  0.75000006  0.02832752
   0.15707468  0.74434773  0.30829831
   0.19365493  0.96861592  0.34015187
   0.67907331  0.95012574  0.38684668
   0.90518999  0.22345497  0.44161473
   0.48144489  0.12685004  0.48972480
   0.13198312  0.47380791  0.50884396
   0.37275845  0.27164552  0.38356090
   0.44032635  0.84081876  0.51398537
   0.01660897  0.64320561  0.43785831
   0.05071575  0.53537584  0.35188187
   0.58175345  0.77473917  0.39416596
   0.03333378  0.39337158  0.34746923
   0.04410453  0.19389981  0.34388961
   0.20489748  0.40619687  0.27683285
   0.26385367  0.17078790  0.28914942
   0.50186771  0.05814047  0.31368470
   0.11582602  0.30441427  0.31362428
Direct configuration=     7
   0.50425578 -0.00092470  0.25813296
  -0.03630424  0.25527418  0.25484264
  -0.00929657 -0.00083607  0.18298507
   0.49958181  0.24784115  0.18299266
   0.49999955  0.00000000  0.10552775
   0.00000000  0.25000006  0.10552775
   0.00000000  0.00000000  0.02832752
   0.49999955  0.25000006  0.02832752
   0.50494838  0.50203286  0.25951184
  -0.02025617  0.75244371  0.25565893
  -0.00620456  0.49468294  0.18435102
   0.49301050  0.75197387  0.18332735
   0.49999955  0.50000000  0.10552775
   0.00000000  0.75000006  0.10552775
   0.00000000  0.50000000  0.02832752
   0.49999955  0.75000006  0.02832752
   0.55945707  0.54248933  0.33973059
   0.17962425  0.61767377  0.32119677
   0.04528835  0.86232103  0.31985090
   0.11095991  0.01000635  0.37464921
   0.26078767  0.86975322  0.35907472
   0.69171166  0.92112622  0.34204278
   0.86002141  0.90114981  0.40884015
   0.93929218  0.12051345  0.43071135
   0.69409989  0.23214055  0.43715721
   0.56210474  0.22765035  0.48724820
   0.29942714  0.16149378  0.50438533
   0.32615703  0.44683012  0.49799061
   0.04525408  0.38245190  0.49596649
   0.26720492  0.17636596  0.37840791
   0.56799296  0.22021680  0.38723970
   0.58452333  0.76210160  0.49970634
   0.55143562  0.91893186  0.49839549
   0.12844987  0.67482796  0.46438375
  -0.00978394  0.53391465  0.43874519
   0.20939158  0.52556317  0.38214174
   0.88069889  0.66449487  0.35043295
   0.26862807  0.89803821  0.43138500
   0.37771392  0.71238040  0.39802172
  -0.00024202  0.00752590  0.26016326
   0.51403625  0.25045916  0.25787725
   0.48981359  0.00583916  0.18343171
   0.00145855  0.24502519  0.18229906
   0.00000000  0.00000000  0.10552775
   0.49999955  0.25000006  0.10552775
   0.49999955  0.00000000  0.02832752
   0.00000000  0.25000006  0.02832752
  -0.02755795  0.51571596  0.25898982
   0.50314861  0.75103787  0.25987175
   0.51187326  0.49717134  0.18336471
  -0.00207134  0.75794723  0.18507994
   0.00000000  0.50000000  0.10552775
   0.49999955  0.75000006  0.10552775
   0.49999955  0.50000000  0.02832752
   0.00000000  0.75000006  0.02832752
   0.16508866  0.74346059  0.31109390
   0.19272273  0.96745188  0.33996832
   0.68243150  0.95364937  0.38657313
   0.90540377  0.22315413  0.44155179
   0.47969343  0.12600500  0.48984080
   0.13093609  0.47290679  0.50893139
   0.37776327  0.27260231  0.38379490
   0.44108486  0.84022575  0.51413304
   0.01644079  0.64348002  0.43774992
   0.05235109  0.53807181  0.35205191
   0.57787676  0.77096694  0.39417445
   0.02708564  0.39443591  0.34878584
   0.03939745  0.19077003  0.34434123
   0.21275294  0.40917903  0.27616829
   0.28016989  0.16443970  0.29037907
   0.50270242  0.05863896  0.31424527
   0.11611750  0.30354537  0.31437526
Direct configuration=     8
   0.50479766 -0.00135551  0.25760152
  -0.04108907  0.25561855  0.25417944
  -0.01014155 -0.00077344  0.18305699
   0.49952197  0.24751624  0.18306054
   0.49999955  0.00000000  0.10552775
   0.00000000  0.25000006  0.10552775
   0.00000000  0.00000000  0.02832752
   0.49999955  0.25000006  0.02832752
   0.50602825  0.50232708  0.25951999
  -0.02283075  0.75278497  0.25512866
  -0.00675557  0.49416570  0.18449146
   0.49228585  0.75219889  0.18337190
   0.49999955  0.50000000  0.10552775
   0.00000000  0.75000006  0.10552775
   0.00000000  0.50000000  0.02832752
   0.49999955  0.75000006  0.02832752
   0.56568977  0.54612550  0.34391435
   0.19204945  0.61465325  0.32141890
   0.03974731  0.86576640  0.31985084
   0.10772918  0.00572786  0.37328398
   0.27430070  0.87219036  0.36074939
   0.69211351  0.92300932  0.34170157
   0.86200427  0.90766783  0.40785765
   0.94062933  0.12352606  0.43018969
   0.69140187  0.22989810  0.43523742
   0.56830569  0.22815432  0.48847371
   0.29585175  0.16042369  0.50353656
   0.31754368  0.44699994  0.49788702
   0.04161984  0.38226155  0.49588095
   0.26358311  0.17703217  0.38030194
   0.57133994  0.22074120  0.38745051
   0.58532398  0.76135944  0.49967676
   0.55071038  0.92117186  0.49895806
   0.12459527  0.67438791  0.46511862
  -0.01093640  0.53292246  0.43962296
   0.20220160  0.53421962  0.38223532
   0.85852879  0.66878190  0.35079175
   0.23427886  0.89952700  0.43469344
   0.38090151  0.71284408  0.39824909
  -0.00095694  0.00773704  0.26001880
   0.51904917  0.25084892  0.25727119
   0.48885931  0.00738561  0.18347391
   0.00163937  0.24366716  0.18246981
   0.00000000  0.00000000  0.10552775
   0.49999955  0.25000006  0.10552775
   0.49999955  0.00000000  0.02832752
   0.00000000  0.25000006  0.02832752
  -0.03343333  0.51890044  0.25882622
   0.50430441  0.75114150  0.26004173
   0.51296575  0.49586477  0.18342175
  -0.00221915  0.75955170  0.18527384
   0.00000000  0.50000000  0.10552775
   0.49999955  0.75000006  0.10552775
   0.49999955  0.50000000  0.02832752
   0.00000000  0.75000006  0.02832752
   0.17113378  0.74264261  0.31335586
   0.19156817  0.96625176  0.33997645
   0.68570792  0.95686180  0.38634742
   0.90573964  0.22297444  0.44150692
   0.47831643  0.12543757  0.48993701
   0.13007560  0.47217254  0.50900841
   0.38233872  0.27331896  0.38403394
   0.44192272  0.83960945  0.51422507
   0.01627354  0.64366534  0.43763283
   0.05401692  0.54060845  0.35225782
   0.57415769  0.76741464  0.39417624
   0.02112149  0.39562513  0.35003189
   0.03460713  0.18778919  0.34482629
   0.21927554  0.41124752  0.27576356
   0.29198426  0.15949249  0.29128699
   0.50372887  0.05901981  0.31480315
   0.11648473  0.30267487  0.31488899
Direct configuration=     9
   0.50525565 -0.00178753  0.25709325
  -0.04486395  0.25579835  0.25366851
  -0.01078674 -0.00070552  0.18311786
   0.49946518  0.24718422  0.18311910
   0.49999955  0.00000000  0.10552775
   0.00000000  0.25000006  0.10552775
   0.00000000  0.00000000  0.02832752
   0.49999955  0.25000006  0.02832752
   0.50719384  0.50261711  0.25954580
  -0.02479382  0.75309763  0.25473292
  -0.00714381  0.49380772  0.18458982
   0.49171385  0.75242021  0.18340481
   0.49999955  0.50000000  0.10552775
   0.00000000  0.75000006  0.10552775
   0.00000000  0.50000000  0.02832752
   0.49999955  0.75000006  0.02832752
   0.57046062  0.54892986  0.34674682
   0.20205836  0.61537104  0.32140966
   0.03793865  0.86765736  0.31988545
   0.10471609  0.00194761  0.37167988
   0.28576968  0.87490626  0.36166255
   0.69365734  0.92468859  0.34195783
   0.86184409  0.91354529  0.40678674
   0.94296994  0.12448798  0.42978285
   0.68894636  0.22836571  0.43380711
   0.57411576  0.22723246  0.48947445
   0.28981428  0.15889525  0.50306724
   0.31788571  0.44728953  0.49761524
   0.03628475  0.38158126  0.49581405
   0.26012826  0.17922139  0.38201108
   0.57668219  0.22160774  0.38757615
   0.58302105  0.76141458  0.50000594
   0.54902733  0.92389886  0.49947572
   0.12216383  0.67407709  0.46587566
  -0.01188196  0.53304106  0.44048961
   0.19508324  0.54255341  0.38188515
   0.83893982  0.67204137  0.35113532
   0.20641898  0.90103942  0.43710142
   0.38393638  0.71328572  0.39857128
  -0.00179796  0.00778272  0.25983930
   0.52400772  0.25136040  0.25664709
   0.48809765  0.00871327  0.18348999
   0.00179927  0.24217686  0.18260637
   0.00000000  0.00000000  0.10552775
   0.49999955  0.25000006  0.10552775
   0.49999955  0.00000000  0.02832752
   0.00000000  0.25000006  0.02832752
  -0.03906910  0.52184359  0.25872336
   0.50537583  0.75121537  0.26016433
   0.51381269  0.49470356  0.18346691
  -0.00233853  0.76115373  0.18540192
   0.00000000  0.50000000  0.10552775
   0.49999955  0.75000006  0.10552775
   0.49999955  0.50000000  0.02832752
   0.00000000  0.75000006  0.02832752
   0.17544887  0.74187697  0.31514452
   0.19033316  0.96503869  0.34013002
   0.68859296  0.95959540  0.38616810
   0.90601831  0.22294441  0.44148094
   0.47732624  0.12513461  0.49000956
   0.12914617  0.47160453  0.50908612
   0.38636688  0.27382269  0.38426761
   0.44282749  0.83900107  0.51426624
   0.01613991  0.64374978  0.43752025
   0.05564302  0.54288950  0.35248321
   0.57100732  0.76433610  0.39416548
   0.01560711  0.39681077  0.35116112
   0.02996176  0.18508713  0.34530731
   0.22427426  0.41269675  0.27552660
   0.29985219  0.15606072  0.29185822
   0.50499335  0.05923682  0.31534994
   0.11679942  0.30183520  0.31521670
Direct configuration=    10
   0.50564746 -0.00220885  0.25661043
  -0.04780456  0.25588988  0.25326845
  -0.01127562 -0.00064752  0.18316880
   0.49942645  0.24688663  0.18317114
   0.49999955  0.00000000  0.10552775
   0.00000000  0.25000006  0.10552775
   0.00000000  0.00000000  0.02832752
   0.49999955  0.25000006  0.02832752
   0.50844731  0.50290999  0.25956777
  -0.02630929  0.75334055  0.25444515
  -0.00744504  0.49356170  0.18466499
   0.49128353  0.75262630  0.18342799
   0.49999955  0.50000000  0.10552775
   0.00000000  0.75000006  0.10552775
   0.00000000  0.50000000  0.02832752
   0.49999955  0.75000006  0.02832752
   0.57414556  0.55109282  0.34843844
   0.20985263  0.61841511  0.32128628
   0.03903901  0.86855694  0.32009345
   0.10119085 -0.00088100  0.37011068
   0.29549613  0.87736413  0.36201839
   0.69548938  0.92628999  0.34258333
   0.86011277  0.91857915  0.40577541
   0.94632059  0.12357710  0.42945616
   0.68812735  0.22745703  0.43286131
   0.57897944  0.22496831  0.49028511
   0.28305102  0.15700475  0.50280530
   0.32409885  0.44768636  0.49723886
   0.03048082  0.38095135  0.49581113
   0.25706053  0.18251742  0.38349586
   0.58298905  0.22265145  0.38755220
   0.57888194  0.76200749  0.50054642
   0.54612959  0.92633463  0.50000529
   0.12020125  0.67386083  0.46643365
  -0.01270213  0.53407343  0.44128526
   0.18868004  0.55012929  0.38133428
   0.82079015  0.67396704  0.35152895
   0.18256176  0.90293469  0.43865980
   0.38703685  0.71309640  0.39896337
  -0.00269715  0.00769924  0.25963149
   0.52872658  0.25192038  0.25601902
   0.48749650  0.00971723  0.18349471
   0.00193831  0.24077605  0.18271252
   0.00000000  0.00000000  0.10552775
   0.49999955  0.25000006  0.10552775
   0.49999955  0.00000000  0.02832752
   0.00000000  0.25000006  0.02832752
  -0.04433207  0.52450929  0.25861432
   0.50641694  0.75129444  0.26021999
   0.51441768  0.49379529  0.18349821
  -0.00242192  0.76258363  0.18547430
   0.00000000  0.50000000  0.10552775
   0.49999955  0.75000006  0.10552775
   0.49999955  0.50000000  0.02832752
   0.00000000  0.75000006  0.02832752
   0.17842572  0.74122432  0.31650793
   0.18912832  0.96383081  0.34038668
   0.69126259  0.96206465  0.38601673
   0.90614795  0.22303798  0.44147048
   0.47661084  0.12506193  0.49006655
   0.12819034  0.47114188  0.50915807
   0.38988914  0.27414387  0.38449347
   0.44377724  0.83844619  0.51427159
   0.01608180  0.64374919  0.43742924
   0.05716817  0.54490015  0.35270557
   0.56825115  0.76160863  0.39414498
   0.01061496  0.39791432  0.35215864
   0.02555873  0.18271752  0.34576769
   0.22779226  0.41355774  0.27542568
   0.30423162  0.15404697  0.29212506
   0.50651633  0.05927790  0.31588605
   0.11705414  0.30106738  0.31541587
Direct configuration=    11
   0.50600463 -0.00264692  0.25615293
  -0.05012199  0.25593663  0.25294964
  -0.01164324 -0.00058039  0.18320566
   0.49938662  0.24663181  0.18320314
   0.49999955  0.00000000  0.10552775
   0.00000000  0.25000006  0.10552775
   0.00000000  0.00000000  0.02832752
   0.49999955  0.25000006  0.02832752
   0.50974630  0.50324498  0.25957046
  -0.02745757  0.75353814  0.25423679
  -0.00770427  0.49337313  0.18472267
   0.49095203  0.75278851  0.18344873
   0.49999955  0.50000000  0.10552775
   0.00000000  0.75000006  0.10552775
   0.00000000  0.50000000  0.02832752
   0.49999955  0.75000006  0.02832752
   0.57757875  0.55378756  0.34964439
   0.21503041  0.62333856  0.32110932
   0.04293906  0.86886898  0.32045058
   0.09689656 -0.00217592  0.36879860
   0.30322006  0.87933863  0.36184577
   0.69856130  0.92722662  0.34358329
   0.86076708  0.92165007  0.40519448
   0.94995393  0.12216908  0.42930490
   0.68909970  0.22704422  0.43236366
   0.58293914  0.22194149  0.49093353
   0.27730280  0.15484821  0.50261006
   0.33106944  0.44839697  0.49695446
   0.02531587  0.38073809  0.49589183
   0.25462976  0.18635913  0.38480415
   0.58918331  0.22386062  0.38737070
   0.57492129  0.76229207  0.50106504
   0.54259134  0.92845999  0.50054754
   0.11824172  0.67353823  0.46675814
  -0.01359522  0.53546537  0.44198648
   0.18357022  0.55672538  0.38095664
   0.80333181  0.67465634  0.35203612
   0.16446870  0.90454174  0.43983349
   0.37625515  0.71073947  0.39970328
  -0.00362102  0.00750235  0.25940307
   0.53285610  0.25231336  0.25546694
   0.48700671  0.01050722  0.18348976
   0.00208664  0.23963954  0.18277303
   0.00000000  0.00000000  0.10552775
   0.49999955  0.25000006  0.10552775
   0.49999955  0.00000000  0.02832752
   0.00000000  0.25000006  0.02832752
  -0.04907835  0.52677981  0.25848267
   0.50745791  0.75137241  0.26022269
   0.51483236  0.49306465  0.18351436
  -0.00250164  0.76374389  0.18552953
   0.00000000  0.50000000  0.10552775
   0.49999955  0.75000006  0.10552775
   0.49999955  0.50000000  0.02832752
   0.00000000  0.75000006  0.02832752