unknown system                          
           1
    11.635600    0.000000    0.000000
     0.000000    5.817800    0.000000
     0.000000    0.000000   32.392800
   Mn   H    O    Zn   S 
  16  21  46   9   1
Direct configuration=     1
   0.12500000  0.00000206  0.28074267
   0.37500009  0.00000292  0.28074267
   0.25000155  0.25000000  0.20831185
   0.25000103  0.75000017  0.20831185
   0.12500000  0.49999811  0.13588100
   0.37500009  0.49999708  0.13588100
   0.49999862  0.25000000  0.06345018
   0.49999905  0.75000017  0.06345018
   0.62500009  0.00000206  0.28074267
   0.87500017  0.00000292  0.28074267
   0.75000163  0.25000000  0.20831185
   0.75000112  0.75000017  0.20831185
   0.62500009  0.49999811  0.13588100
   0.87500017  0.49999708  0.13588100
   0.99999871  0.25000000  0.06345018
   0.99999914  0.75000017  0.06345018
   0.62500009  0.06875451  0.31161372
   0.65219439  0.45925797  0.36493712
   0.62447557  0.51306542  0.41340390
   0.21641815  0.30086167  0.40851942
   0.10783801  0.46941026  0.39832139
   0.57964772  0.75532847  0.47637845
   0.44084602  0.72971897  0.48225834
   0.59550896  0.05477672  0.51607468
   0.46882602  0.17543109  0.51720398
   0.71663627  0.71328543  0.39080237
   0.83559309  0.81771013  0.40988084
   0.97054273  0.21989618  0.51165080
   0.96065961  0.49555880  0.50283211
   0.37582548  0.21379284  0.44965749
   0.48633685  0.04152498  0.44673838
   0.56088461  0.96140173  0.38551160
   0.50848035  0.20425694  0.36863680
   0.88802632  0.38631441  0.30596197
   0.97033664  0.15930988  0.30368761
   0.69930317  0.05581423  0.45924304
   0.75402901  0.25115508  0.42884113
   0.49999957  0.22613307  0.28237352
   0.49999957  0.77387019  0.28237238
   0.25000052  0.22613307  0.27911181
   0.25000052  0.77387019  0.27911298
   0.13693501  0.00000103  0.20994153
   0.36306654  0.00000103  0.20994270
   0.13693501  0.49999914  0.20668213
   0.36306654  0.49999914  0.20668099
   0.25000052  0.27386710  0.13751185
   0.25000052  0.72613015  0.13751071
   0.49999957  0.27386710  0.13425014
   0.49999957  0.72613015  0.13425132
   0.11306499  0.49999914  0.06507986
   0.38693355  0.49999914  0.06508104
   0.11306499  0.00000103  0.06182047
   0.38693355  0.00000103  0.06181932
   0.99999966  0.22613307  0.28237352
   0.99999966  0.77387019  0.28237238
   0.75000060  0.22613307  0.27911181
   0.75000060  0.77387019  0.27911298
   0.63693510  0.00000103  0.20994153
   0.86306662  0.00000103  0.20994270
   0.63693510  0.49999914  0.20668213
   0.86306662  0.49999914  0.20668099
   0.75000060  0.27386710  0.13751185
   0.75000060  0.72613015  0.13751071
   0.99999966  0.27386710  0.13425014
   0.99999966  0.72613015  0.13425132
   0.61306508  0.49999914  0.06507986
   0.88693363  0.49999914  0.06508104
   0.61306508  0.00000103  0.06182047
   0.88693363  0.00000103  0.06181932
   0.59212469  0.51294252  0.38480150
   0.19102152  0.46450015  0.40603859
   0.51466654  0.64369624  0.47889528
   0.55347047  0.20395562  0.51876895
   0.75138171  0.84518925  0.40616936
   0.92793771  0.36378648  0.51879711
   0.41206487  0.08659579  0.43347732
   0.51775259  0.03681718  0.36249778
   0.96922325  0.33118945  0.30385407
   0.68097270  0.18191842  0.43932266
   0.28905695  0.85943140  0.36698751
   0.46094323  0.85943140  0.36698751
   0.28905695  0.85943140  0.31141961
   0.46094323  0.85943140  0.31141961
   0.49999957  0.49999914  0.24452727
   0.49999957  0.00000103  0.17209642
   0.25000052  0.00000103  0.09966560
   0.25000052  0.49999914  0.02723476
   0.99999966  0.49999914  0.24452727
   0.99999966  0.00000103  0.17209642
   0.75000060  0.00000103  0.09966560
   0.75000060  0.49999914  0.02723476
   0.19112964  0.08594314  0.33920356
   0.37500009  0.85943140  0.33611645
Direct configuration=     2
   0.12478001 -0.00020182  0.28061912
   0.37498060 -0.00084648  0.28079284
   0.24950845  0.24922063  0.20835977
   0.25027593  0.74899993  0.20830074
   0.12500000  0.49999811  0.13588100
   0.37500009  0.49999708  0.13588100
   0.49999862  0.25000000  0.06345018
   0.49999905  0.75000017  0.06345018
   0.62498650 -0.00044624  0.28045271
   0.87470633  0.00065405  0.28078929
   0.74992473  0.24953666  0.20840197
   0.75042803  0.74905268  0.20836795
   0.62500009  0.49999811  0.13588100
   0.87500017  0.49999708  0.13588100
   0.99999871  0.25000000  0.06345018
   0.99999914  0.75000017  0.06345018
   0.62549690  0.06481441  0.31746931
   0.65061296  0.45039087  0.36424994
   0.61922961  0.51835093  0.41431500
   0.21871135  0.30207956  0.40860553
   0.10598453  0.47241185  0.39942310
   0.58232753  0.74882505  0.47709299
   0.43937647  0.73180952  0.48074677
   0.60129168  0.05642120  0.51559471
   0.47262154  0.17470317  0.51832590
   0.71633480  0.70753355  0.39083003
   0.83190432  0.81684625  0.41145012
   0.96916868  0.22813291  0.51182949
   0.95622524  0.49651629  0.50229853
   0.37276105  0.21395147  0.44954581
   0.48171322  0.04132848  0.44638563
   0.56201606  0.96006361  0.38682083
   0.51068952  0.20319621  0.36887234
   0.88817404  0.38486695  0.30520713
   0.96984521  0.13473410  0.30616678
   0.69592773  0.06782071  0.45952587
   0.75650067  0.24798407  0.42817255
   0.50049038  0.22729382  0.28226158
   0.49942506  0.77209441  0.28207059
   0.25090466  0.22473514  0.27918646
   0.25107451  0.77136597  0.27953608
   0.13774199 -0.00057310  0.21030957
   0.36279522  0.00145051  0.20972731
   0.13733443  0.49971504  0.20653472
   0.36306114  0.49966809  0.20656590
   0.25000052  0.27386710  0.13751185
   0.25000052  0.72613015  0.13751071
   0.49999957  0.27386710  0.13425014
   0.49999957  0.72613015  0.13425132
   0.11306499  0.49999914  0.06507986
   0.38693355  0.49999914  0.06508104
   0.11306499  0.00000103  0.06182047
   0.38693355  0.00000103  0.06181932
   1.00086599  0.22239903  0.28242595
   1.00044539  0.77546090  0.28246326
   0.74898237  0.22731795  0.27918024
   0.75014285  0.77423164  0.27902493
   0.63665938  0.00045157  0.21046098
   0.86411662  0.00111736  0.20976697
   0.63574878  0.50173593  0.20648525
   0.86297431  0.50063191  0.20668361
   0.75000060  0.27386710  0.13751185
   0.75000060  0.72613015  0.13751071
   0.99999966  0.27386710  0.13425014
   0.99999966  0.72613015  0.13425132
   0.61306508  0.49999914  0.06507986
   0.88693363  0.49999914  0.06508104
   0.61306508  0.00000103  0.06182047
   0.88693363  0.00000103  0.06181932
   0.59185566  0.51222020  0.38419613
   0.19174106  0.46232925  0.40564288
   0.51452025  0.64167318  0.47871068
   0.55381388  0.20275286  0.51919064
   0.75246269  0.84758362  0.40608631
   0.92870741  0.36257884  0.51867130
   0.41170753  0.08620958  0.43348153
   0.51880590  0.03633327  0.36247818
   0.96876422  0.33475363  0.30423118
   0.68061940  0.18067742  0.43927422
   0.28944109  0.85994702  0.36711136
   0.46080613  0.85756916  0.36718984
   0.28948652  0.86019343  0.31114569
   0.46238451  0.86048074  0.31144420
   0.49987073  0.50020352  0.24469496
   0.49974761 -0.00004937  0.17213550
   0.25000052  0.00000103  0.09966560
   0.25000052  0.49999914  0.02723476
   0.99945236  0.50135303  0.24456372
   0.99986271  0.00049431  0.17214699
   0.75000060  0.00000103  0.09966560
   0.75000060  0.49999914  0.02723476
   0.19129876  0.08771600  0.33927858
   0.37583962  0.85942480  0.33613279
Direct configuration=     3
   0.12453001 -0.00041358  0.28047942
   0.37498176 -0.00120186  0.28075808
   0.24901859  0.24843905  0.20840768
   0.25055418  0.74802341  0.20828014
   0.12500000  0.49999811  0.13588100
   0.37500009  0.49999708  0.13588100
   0.49999862  0.25000000  0.06345018
   0.49999905  0.75000017  0.06345018
   0.62502787 -0.00089858  0.28011881
   0.87438971  0.00122266  0.28082318
   0.74984583  0.24907973  0.20849423
   0.75085074  0.74812176  0.20842426
   0.62500009  0.49999811  0.13588100
   0.87500017  0.49999708  0.13588100
   0.99999871  0.25000000  0.06345018
   0.99999914  0.75000017  0.06345018
   0.62685823  0.06319831  0.32486602
   0.64855915  0.44190692  0.36385859
   0.61347291  0.52209963  0.41471955
   0.22028046  0.30381229  0.40862750
   0.10581776  0.47417647  0.40062333
   0.58375831  0.74111660  0.47788180
   0.43953197  0.73297297  0.47914393
   0.60559364  0.06058524  0.51529807
   0.47606902  0.17282087  0.51946126
   0.71706055  0.70471201  0.39109951
   0.82887378  0.81523257  0.41297757
   0.96877038  0.23448516  0.51181159
   0.95175896  0.49536485  0.50191876
   0.37088483  0.21208574  0.44923779
   0.47777792  0.04179125  0.44633040
   0.56477474  0.96342239  0.38793960
   0.51180852  0.20429993  0.36932588
   0.88695917  0.38305446  0.30412954
   0.96760215  0.09224427  0.31009012
   0.69330868  0.07874987  0.46003565
   0.75741138  0.24239054  0.42783965
   0.50096684  0.22843641  0.28214216
   0.49923201  0.76937952  0.28149145
   0.25180298  0.22328557  0.27924004
   0.25187459  0.76814187  0.27977104
   0.13855465 -0.00117438  0.21068941
   0.36251470  0.00284169  0.20953792
   0.13770999  0.49944612  0.20637599
   0.36304218  0.49937094  0.20644577
   0.25000052  0.27386710  0.13751185
   0.25000052  0.72613015  0.13751071
   0.49999957  0.27386710  0.13425014
   0.49999957  0.72613015  0.13425132
   0.11306499  0.49999914  0.06507986
   0.38693355  0.49999914  0.06508104
   0.11306499  0.00000103  0.06182047
   0.38693355  0.00000103  0.06181932
   1.00262304  0.21584403  0.28176278
   1.00091323  0.77700548  0.28254478
   0.74801044  0.22850263  0.27922442
   0.75027993  0.77470967  0.27891863
   0.63640386  0.00084869  0.21097641
   0.86517203  0.00220284  0.20961285
   0.63457572  0.50350913  0.20627352
   0.86288777  0.50128189  0.20667978
   0.75000060  0.27386710  0.13751185
   0.75000060  0.72613015  0.13751071
   0.99999966  0.27386710  0.13425014
   0.99999966  0.72613015  0.13425132
   0.61306508  0.49999914  0.06507986
   0.88693363  0.49999914  0.06508104
   0.61306508  0.00000103  0.06182047
   0.88693363  0.00000103  0.06181932
   0.59163914  0.51146990  0.38359625
   0.19240139  0.46020186  0.40524654
   0.51435003  0.63979081  0.47852456
   0.55427554  0.20145423  0.51960518
   0.75347085  0.84975007  0.40597873
   0.92942570  0.36160108  0.51855301
   0.41123510  0.08597940  0.43348919
   0.52056227  0.03697485  0.36251587
   0.96753961  0.34238589  0.30529840
   0.68030517  0.17978397  0.43919558
   0.28948730  0.86053835  0.36742743
   0.46053257  0.85454139  0.36760715
   0.28891073  0.86086773  0.31072222
   0.46469512  0.86187582  0.31142360
   0.49974291  0.50035582  0.24485873
   0.49949847 -0.00009615  0.17217168
   0.25000052  0.00000103  0.09966560
   0.25000052  0.49999914  0.02723476
   0.99891136  0.50278077  0.24458783
   0.99972582  0.00098494  0.17219569
   0.75000060  0.00000103  0.09966560
   0.75000060  0.49999914  0.02723476
   0.19143598  0.08955775  0.33936718
   0.37655131  0.85898481  0.33640488
Direct configuration=     4
   0.12424481 -0.00065531  0.28031360
   0.37500368 -0.00116156  0.28065642
   0.24853168  0.24765716  0.20845581
   0.25083680  0.74706036  0.20825435
   0.12500000  0.49999811  0.13588100
   0.37500009  0.49999708  0.13588100
   0.49999862  0.25000000  0.06345018
   0.49999905  0.75000017  0.06345018
   0.62512197 -0.00130335  0.27976978
   0.87406906  0.00169333  0.28084967
   0.74976782  0.24862627  0.20858852
   0.75127321  0.74721168  0.20848179
   0.62500009  0.49999811  0.13588100
   0.87500017  0.49999708  0.13588100
   0.99999871  0.25000000  0.06345018
   0.99999914  0.75000017  0.06345018
   0.62932434  0.06139588  0.33220249
   0.64621875  0.43380552  0.36380264
   0.60741306  0.52404905  0.41445088
   0.22118607  0.30492532  0.40860597
   0.10742453  0.47442539  0.40188228
   0.58406606  0.73269485  0.47871483
   0.44143170  0.73308045  0.47747465
   0.60819953  0.06723447  0.51520748
   0.47752152  0.16894602  0.52059664
   0.71885651  0.70544512  0.39164406
   0.82794237  0.81226323  0.41460141
   0.97065615  0.23479661  0.51136164
   0.94743867  0.49282115  0.50160277
   0.37016063  0.20838767  0.44876444
   0.47617758  0.04182209  0.44687571
   0.56860412  0.97119659  0.38864931
   0.51202204  0.20759913  0.36997039
   0.88432738  0.38072386  0.30280824
   0.96354233  0.04224569  0.31467044
   0.69175332  0.08587809  0.46134974
   0.75657892  0.23447634  0.42784234
   0.50143992  0.22951028  0.28201473
   0.49937471  0.76579978  0.28065953
   0.25269681  0.22176974  0.27927658
   0.25241248  0.76415156  0.27981214
   0.13934949 -0.00172302  0.21107830
   0.36224568  0.00422869  0.20935088
   0.13805918  0.49913221  0.20620626
   0.36304279  0.49903564  0.20631181
   0.25000052  0.27386710  0.13751185
   0.25000052  0.72613015  0.13751071
   0.49999957  0.27386710  0.13425014
   0.49999957  0.72613015  0.13425132
   0.11306499  0.49999914  0.06507986
   0.38693355  0.49999914  0.06508104
   0.11306499  0.00000103  0.06182047
   0.38693355  0.00000103  0.06181932
   1.00469820  0.20796968  0.28076297
   1.00137384  0.77862201  0.28261722
   0.74712290  0.22964805  0.27925023
   0.75041445  0.77535064  0.27880189
   0.63613684  0.00128307  0.21148880
   0.86621492  0.00333350  0.20946532
   0.63340410  0.50524762  0.20604687
   0.86281996  0.50184215  0.20666338
   0.75000060  0.27386710  0.13751185
   0.75000060  0.72613015  0.13751071
   0.99999966  0.27386710  0.13425014
   0.99999966  0.72613015  0.13425132
   0.61306508  0.49999914  0.06507986
   0.88693363  0.49999914  0.06508104
   0.61306508  0.00000103  0.06182047
   0.88693363  0.00000103  0.06181932
   0.59146114  0.51070589  0.38301308
   0.19299443  0.45819372  0.40485060
   0.51413503  0.63802786  0.47833744
   0.55497518  0.20011645  0.52001973
   0.75430620  0.85167759  0.40583517
   0.92999199  0.36106849  0.51846396
   0.41054467  0.08595976  0.43347970
   0.52296283  0.03869419  0.36263080
   0.96603765  0.35205054  0.30670542
   0.68001625  0.17940763  0.43905177
   0.28916970  0.86126273  0.36791760
   0.46016409  0.85037615  0.36822296
   0.28752292  0.86154135  0.31019623
   0.46778653  0.86370741  0.31137204
   0.49961605  0.50045770  0.24501656
   0.49925148 -0.00014275  0.17220846
   0.25000052  0.00000103  0.09966560
   0.25000052  0.49999914  0.02723476
   0.99837585  0.50425680  0.24460128
   0.99958966  0.00147338  0.17224328
   0.75000060  0.00000103  0.09966560
   0.75000060  0.49999914  0.02723476
   0.19154891  0.09147362  0.33947460
   0.37712692  0.85810537  0.33688945
Direct configuration=     5
   0.12394010 -0.00093453  0.28012341
   0.37505015 -0.00074417  0.28050446
   0.24805394  0.24687404  0.20850366
   0.25112588  0.74612201  0.20821971
   0.12500000  0.49999811  0.13588100
   0.37500009  0.49999708  0.13588100
   0.49999862  0.25000000  0.06345018
   0.49999905  0.75000017  0.06345018
   0.62523640 -0.00166813  0.27942164
   0.87368149  0.00203514  0.28086340
   0.74968422  0.24817458  0.20868416
   0.75168580  0.74633533  0.20854064
   0.62500009  0.49999811  0.13588100
   0.87500017  0.49999708  0.13588100
   0.99999871  0.25000000  0.06345018
   0.99999914  0.75000017  0.06345018
   0.63311127  0.05845709  0.33848819
   0.64389336  0.42594798  0.36407217
   0.60130396  0.52399207  0.41353015
   0.22160246  0.30444296  0.40860739
   0.11034783  0.47315745  0.40316204
   0.58369296  0.72426149  0.47958765
   0.44471941  0.73247386  0.47578425
   0.60934644  0.07524300  0.51531775
   0.47676023  0.16282743  0.52174294
   0.72159168  0.70948219  0.39242372
   0.82886902  0.80802729  0.41635899
   0.97457878  0.23000826  0.51051193
   0.94346443  0.49008050  0.50120560
   0.37024001  0.20392208  0.44827240
   0.47687743  0.04138242  0.44802983
   0.57309177  0.98296722  0.38885964
   0.51129330  0.21250478  0.37081440
   0.88045209  0.37846638  0.30134536
   0.95977371 -0.00939735  0.32008658
   0.69106263  0.09010035  0.46339352
   0.75442723  0.22481301  0.42810203
   0.50187370  0.23054120  0.28187326
   0.49982202  0.76148728  0.27960905
   0.25357217  0.22021327  0.27928866
   0.25267478  0.75936986  0.27964942
   0.14012769 -0.00229181  0.21147306
   0.36199224  0.00554217  0.20916893
   0.13838540  0.49883079  0.20602628
   0.36305466  0.49873483  0.20616910
   0.25000052  0.27386710  0.13751185
   0.25000052  0.72613015  0.13751071
   0.49999957  0.27386710  0.13425014
   0.49999957  0.72613015  0.13425132
   0.11306499  0.49999914  0.06507986
   0.38693355  0.49999914  0.06508104
   0.11306499  0.00000103  0.06182047
   0.38693355  0.00000103  0.06181932
   1.00684710  0.19985592  0.27961879
   1.00184588  0.78029697  0.28268052
   0.74632178  0.23070991  0.27925629
   0.75059021  0.77607526  0.27866118
   0.63588529  0.00171033  0.21199626
   0.86723134  0.00447942  0.20933600
   0.63226395  0.50693907  0.20581186
   0.86273702  0.50234164  0.20663400
   0.75000060  0.27386710  0.13751185
   0.75000060  0.72613015  0.13751071
   0.99999966  0.27386710  0.13425014
   0.99999966  0.72613015  0.13425132
   0.61306508  0.49999914  0.06507986
   0.88693363  0.49999914  0.06508104
   0.61306508  0.00000103  0.06182047
   0.88693363  0.00000103  0.06181932
   0.59129464  0.50995270  0.38244821
   0.19353812  0.45634045  0.40444865
   0.51387024  0.63631629  0.47814643
   0.55590333  0.19882560  0.52042536
   0.75498396  0.85334447  0.40565581
   0.93040589  0.36085924  0.51841362
   0.40965777  0.08610807  0.43344696
   0.52589097  0.04115769  0.36282792
   0.96449960  0.36237899  0.30825353
   0.67973084  0.17946577  0.43885247
   0.28850802  0.86205931  0.36855728
   0.45982382  0.84542298  0.36904601
   0.28550342  0.86223035  0.30962786
   0.47151522  0.86578282  0.31130467
   0.49949046  0.50050015  0.24516865
   0.49900544 -0.00018837  0.17224427
   0.25000052  0.00000103  0.09966560
   0.25000052  0.49999914  0.02723476
   0.99784995  0.50576163  0.24460743
   0.99945741  0.00195847  0.17228892
   0.75000060  0.00000103  0.09966560
   0.75000060  0.49999914  0.02723476
   0.19163703  0.09345976  0.33959952
   0.37757165  0.85692854  0.33753466
Direct configuration=     6
   0.12358442 -0.00124225  0.27990871
   0.37514442  0.00005021  0.28028211
   0.24759147  0.24612685  0.20855029
   0.25142063  0.74520380  0.20817604
   0.12500000  0.49999811  0.13588100
   0.37500009  0.49999708  0.13588100
   0.49999862  0.25000000  0.06345018
   0.49999905  0.75000017  0.06345018
   0.62540532 -0.00197580  0.27907645
   0.87326972  0.00231614  0.28087846
   0.74960163  0.24772541  0.20878165
   0.75209069  0.74549375  0.20860180
   0.62500009  0.49999811  0.13588100
   0.87500017  0.49999708  0.13588100
   0.99999871  0.25000000  0.06345018
   0.99999914  0.75000017  0.06345018
   0.63801044  0.05564822  0.34406645
   0.64193115  0.41793910  0.36459226
   0.59543883  0.52194205  0.41212318
   0.22166942  0.30193823  0.40866465
   0.11345453  0.47065001  0.40441240
   0.58338282  0.71673888  0.48048117
   0.44855758  0.73207672  0.47406318
   0.60990077  0.08227799  0.51555027
   0.47524904  0.15503258  0.52288695
   0.72479589  0.71537852  0.39327217
   0.83020786  0.80343878  0.41808372
   0.97902705  0.22475639  0.50950648
   0.93997825  0.48827166  0.50055425
   0.37039450  0.20075707  0.44800627
   0.47831944  0.04146395  0.44941987
   0.57799925  0.99757471  0.38869202
   0.50966766  0.21861521  0.37182357
   0.87627582  0.37545523  0.29987669
   0.95436424 -0.06085345  0.32558930
   0.69081171  0.09415242  0.46549487
   0.75225299  0.21443671  0.42839062
   0.50227946  0.23147003  0.28172707
   0.50043008  0.75675014  0.27840183
   0.25440211  0.21859027  0.27929775
   0.25270936  0.75381393  0.27928605
   0.14088907 -0.00279960  0.21187051
   0.36172921  0.00685080  0.20900644
   0.13870430  0.49847352  0.20583908
   0.36306038  0.49838776  0.20601489
   0.25000052  0.27386710  0.13751185
   0.25000052  0.72613015  0.13751071
   0.49999957  0.27386710  0.13425014
   0.49999957  0.72613015  0.13425132
   0.11306499  0.49999914  0.06507986
   0.38693355  0.49999914  0.06508104
   0.11306499  0.00000103  0.06182047
   0.38693355  0.00000103  0.06181932
   1.00894726  0.19189772  0.27843603
   1.00242389  0.78203368  0.28272528
   0.74558692  0.23172595  0.27924126
   0.75073578  0.77693413  0.27850325
   0.63562025  0.00210890  0.21249611
   0.86821105  0.00559862  0.20921418
   0.63116233  0.50859442  0.20556430
   0.86266849  0.50279964  0.20658375
   0.75000060  0.27386710  0.13751185
   0.75000060  0.72613015  0.13751071
   0.99999966  0.27386710  0.13425014
   0.99999966  0.72613015  0.13425132
   0.61306508  0.49999914  0.06507986
   0.88693363  0.49999914  0.06508104
   0.61306508  0.00000103  0.06182047
   0.88693363  0.00000103  0.06181932
   0.59110477  0.50926055  0.38190147
   0.19408362  0.45467140  0.40404615
   0.51356468  0.63453752  0.47795290
   0.55690439  0.19769351  0.52082397
   0.75562494  0.85478718  0.40546066
   0.93074679  0.36061269  0.51839814
   0.40871759  0.08621908  0.43340049
   0.52925564  0.04407184  0.36308322
   0.96297021  0.37288644  0.30984292
   0.67940041  0.17970949  0.43865548
   0.28753414  0.86287976  0.36932982
   0.45963027  0.83997565  0.37008017
   0.28299627  0.86284261  0.30909343
   0.47572487  0.86789656  0.31120401
   0.49936648  0.50047612  0.24531284
   0.49876448 -0.00023391  0.17228014
   0.25000052  0.00000103  0.09966560
   0.25000052  0.49999914  0.02723476
   0.99733379  0.50727751  0.24460836
   0.99932904  0.00243828  0.17233261
   0.75000060  0.00000103  0.09966560
   0.75000060  0.49999914  0.02723476
   0.19170434  0.09551186  0.33974487
   0.37788336  0.85553067  0.33830266
Direct configuration=     7
   0.12321477 -0.00158140  0.27967821
   0.37528171  0.00114635  0.28000745
   0.24714486  0.24540301  0.20859710
   0.25172107  0.74432505  0.20812525
   0.12500000  0.49999811  0.13588100
   0.37500009  0.49999708  0.13588100
   0.49999862  0.25000000  0.06345018
   0.49999905  0.75000017  0.06345018
   0.62560403 -0.00223082  0.27873661
   0.87282192  0.00249861  0.28089966
   0.74951712  0.24729485  0.20887852
   0.75248230  0.74468781  0.20866337
   0.62500009  0.49999811  0.13588100
   0.87500017  0.49999708  0.13588100
   0.99999871  0.25000000  0.06345018
   0.99999914  0.75000017  0.06345018
   0.64439536  0.05356892  0.34880998
   0.64055420  0.40935156  0.36530234
   0.59005117  0.51816982  0.41060681
   0.22137683  0.29789569  0.40877936
   0.11527428  0.46735863  0.40562490
   0.58376461  0.71073058  0.48140640
   0.45192961  0.73317055  0.47227790
   0.61110996  0.08549576  0.51578489
   0.47464942  0.14646146  0.52399037
   0.72782597  0.72054267  0.39393503
   0.83070031  0.79953469  0.41956628
   0.98275560  0.22253449  0.50856041
   0.93697537  0.48754795  0.49960400
   0.36994296  0.20067920  0.44818168
   0.47903151  0.04292723  0.45067271
   0.58248117  1.01397281  0.38808981
   0.50828453  0.22372867  0.37274324
   0.87305070  0.37306709  0.29868380
   0.94850924 -0.11176761  0.33101192
   0.69065118  0.09985655  0.46707297
   0.75179903  0.20433785  0.42842654
   0.50266224  0.23234472  0.28157130
   0.50115805  0.75170203  0.27707545
   0.25522599  0.21697119  0.27928980
   0.25253074  0.74752170  0.27873037
   0.14160800 -0.00329620  0.21225142
   0.36149228  0.00806601  0.20886252
   0.13899353  0.49812850  0.20563696
   0.36305645  0.49806532  0.20585019
   0.25000052  0.27386710  0.13751185
   0.25000052  0.72613015  0.13751071
   0.49999957  0.27386710  0.13425014
   0.49999957  0.72613015  0.13425132
   0.11306499  0.49999914  0.06507986
   0.38693355  0.49999914  0.06508104
   0.11306499  0.00000103  0.06182047
   0.38693355  0.00000103  0.06181932
   1.01096093  0.18426017  0.27722921
   1.00300992  0.78377475  0.28276139
   0.74493476  0.23264551  0.27920804
   0.75091431  0.77790638  0.27832957
   0.63534187  0.00248718  0.21298518
   0.86914080  0.00669736  0.20910148
   0.63010668  0.51019158  0.20530526
   0.86260833  0.50320296  0.20651537
   0.75000060  0.27386710  0.13751185
   0.75000060  0.72613015  0.13751071
   0.99999966  0.27386710  0.13425014
   0.99999966  0.72613015  0.13425132
   0.61306508  0.49999914  0.06507986
   0.88693363  0.49999914  0.06508104
   0.61306508  0.00000103  0.06182047
   0.88693363  0.00000103  0.06181932
   0.59086367  0.50864650  0.38135459
   0.19472377  0.45313132  0.40364137
   0.51324288  0.63259906  0.47775960
   0.55778966  0.19683527  0.52122770
   0.75634030  0.85607962  0.40527920
   0.93108959  0.36011088  0.51840660
   0.40786593  0.08611776  0.43334777
   0.53298840  0.04803549  0.36342350
   0.96136496  0.38331776  0.31142877
   0.67894165  0.17996697  0.43851458
   0.28623578  0.86389764  0.37019683
   0.45944978  0.83363737  0.37124730
   0.28017011  0.86351041  0.30861611
   0.48031105  0.87016817  0.31110062
   0.49924344  0.50037830  0.24544769
   0.49852946 -0.00027752  0.17231584
   0.25000052  0.00000103  0.09966560
   0.25000052  0.49999914  0.02723476
   0.99682932  0.50879127  0.24460677
   0.99920779  0.00290929  0.17237516
   0.75000060  0.00000103  0.09966560
   0.75000060  0.49999914  0.02723476
   0.19174770  0.09760421  0.33990428
   0.37813311  0.85375706  0.33916281
Direct configuration=     8
   0.12288107 -0.00196155  0.27944147
   0.37545292  0.00249501  0.27971810
   0.24671270  0.24468298  0.20864718
   0.25202157  0.74348965  0.20807991
   0.12500000  0.49999811  0.13588100
   0.37500009  0.49999708  0.13588100
   0.49999862  0.25000000  0.06345018
   0.49999905  0.75000017  0.06345018
   0.62580667 -0.00245957  0.27838920
   0.87235192  0.00263466  0.28092161
   0.74942829  0.24689202  0.20897579
   0.75286112  0.74392656  0.20873059
   0.62500009  0.49999811  0.13588100
   0.87500017  0.49999708  0.13588100
   0.99999871  0.25000000  0.06345018
   0.99999914  0.75000017  0.06345018
   0.64980618  0.05313703  0.35336658
   0.63973999  0.40039679  0.36620598
   0.58520581  0.51294962  0.40950316
   0.22065284  0.29346838  0.40894285
   0.11512645  0.46361672  0.40683716
   0.58489813  0.70611836  0.48236490
   0.45429177  0.73652521  0.47037797
   0.61356271  0.08376480  0.51596984
   0.47592744  0.13785120  0.52501388
   0.72992235  0.72177581  0.39414189
   0.82970213  0.79709263  0.42066269
   0.98512802  0.22473477  0.50779755
   0.93435937  0.48693275  0.49849987
   0.36885794  0.20363076  0.44877817
   0.47829947  0.04612308  0.45155970
   0.58662076  1.03019227  0.38766565
   0.50757287  0.22765358  0.37346678
   0.87157410  0.37138687  0.29796217
   0.94220432 -0.16084209  0.33589438
   0.69037457  0.10786638  0.46782406
   0.75376068  0.19463921  0.42809765
   0.50303087  0.23318073  0.28139305
   0.50201415  0.74644668  0.27566997
   0.25601257  0.21545343  0.27924224
   0.25208188  0.74048851  0.27801036
   0.14227947 -0.00391181  0.21262459
   0.36127465  0.00908012  0.20872563
   0.13927272  0.49789203  0.20543093
   0.36304219  0.49785779  0.20567468
   0.25000052  0.27386710  0.13751185
   0.25000052  0.72613015  0.13751071
   0.49999957  0.27386710  0.13425014
   0.49999957  0.72613015  0.13425132
   0.11306499  0.49999914  0.06507986
   0.38693355  0.49999914  0.06508104
   0.11306499  0.00000103  0.06182047
   0.38693355  0.00000103  0.06181932
   1.01285405  0.17691241  0.27601148
   1.00355620  0.78542059  0.28278055
   0.74440015  0.23346037  0.27916313
   0.75112378  0.77892072  0.27813062
   0.63505618  0.00277725  0.21347985
   0.87002588  0.00767635  0.20900689
   0.62907564  0.51177273  0.20503360
   0.86258190  0.50360052  0.20642788
   0.75000060  0.27386710  0.13751185
   0.75000060  0.72613015  0.13751071
   0.99999966  0.27386710  0.13425014
   0.99999966  0.72613015  0.13425132
   0.61306508  0.49999914  0.06507986
   0.88693363  0.49999914  0.06508104
   0.61306508  0.00000103  0.06182047
   0.88693363  0.00000103  0.06181932
   0.59057276  0.50811684  0.38077925
   0.19550854  0.45163776  0.40323268
   0.51293633  0.63046661  0.47757029
   0.55845810  0.19628311  0.52163642
   0.75721546  0.85736430  0.40513539
   0.93147930  0.35934113  0.51842266
   0.40715880  0.08579743  0.43330293
   0.53719408  0.05307415  0.36377690
   0.95962479  0.39362455  0.31298771
   0.67832701  0.18018933  0.43845299
   0.28466825  0.86505834  0.37112168
   0.45922830  0.82643249  0.37250268
   0.27714758  0.86412994  0.30819248
   0.48510869  0.87226671  0.31099856
   0.49912739  0.50019907  0.24557329
   0.49830445 -0.00031940  0.17235116
   0.25000052  0.00000103  0.09966560
   0.25000052  0.49999914  0.02723476
   0.99633367  0.51029733  0.24460535
   0.99908849  0.00336764  0.17241596
   0.75000060  0.00000103  0.09966560
   0.75000060  0.49999914  0.02723476
   0.19176467  0.09972351  0.34007241
   0.37836156  0.85186158  0.34009038
Direct configuration=     9
   0.12253770 -0.00233776  0.27919111
   0.37568057  0.00402983  0.27940205
   0.24631271  0.24401526  0.20869347
   0.25232062  0.74270850  0.20803556
   0.12500000  0.49999811  0.13588100
   0.37500009  0.49999708  0.13588100
   0.49999862  0.25000000  0.06345018
   0.49999905  0.75000017  0.06345018
   0.62606937 -0.00256062  0.27802275
   0.87187357  0.00269506  0.28094511
   0.74934466  0.24650940  0.20907043
   0.75322800  0.74320979  0.20880020
   0.62500009  0.49999811  0.13588100
   0.87500017  0.49999708  0.13588100
   0.99999871  0.25000000  0.06345018
   0.99999914  0.75000017  0.06345018
   0.65442060  0.05466357  0.35760702
   0.63938567  0.39145708  0.36728838
   0.58076457  0.50651125  0.40911627
   0.21952969  0.28956978  0.40912792
   0.11374958  0.45958822  0.40803398
   0.58626551  0.70226417  0.48331174
   0.45600971  0.74153485  0.46837681
   0.61652235  0.07884028  0.51618777
   0.47922392  0.12963005  0.52593697
   0.73083542  0.71819807  0.39381167
   0.82723546  0.79641884  0.42132291
   0.98599932  0.23127704  0.50726840
   0.93203868  0.48517742  0.49746088
   0.36766532  0.20782010  0.44953330
   0.47602914  0.05091956  0.45199306
   0.59068160  1.04500263  0.38791824
   0.50767389  0.23013068  0.37391280